ITEM: TIMESTEP
0
ITEM: NUMBER OF ATOMS
1200
ITEM: BOX BOUNDS xy xz yz pp pp pp
0.0000000000000000e+00 2.2792614728000000e+01 2.0623073912000001e+00
0.0000000000000000e+00 3.2712435729600003e+01 1.9678073368000000e+00
0.0000000000000000e+00 2.4740606862000000e+01 8.1530720191999997e+00
ITEM: ATOMS id mol element x y z vx vy vz fx fy fz
1 1 9 2.391 9.94 3.379 -0.00112062 0.0069273 -0.00621896 2.62336 -2.13014 -1.50184
2 1 5 2.526 9.262 2.165 0.000792994 0.000284435 -0.000863342 22.331 85.7916 25.2963
3 1 7 3.042 9.8 1.062 0.00190722 0.000505198 0.00210516 7.05812 7.69917 -7.52507
4 1 10 3.459 11.076 1.15 -0.0105462 -8.53769e-05 -0.00252067 -39.6687 -42.3452 75.7937
5 1 5 3.325 11.85 2.291 -0.00277862 -0.00102618 0.00816749 -28.0948 -93.1452 -7.52295
6 1 5 2.778 11.278 3.417 -0.00335354 0.00290801 0.00109908 2.6639 -58.5301 -68.559
7 1 4 1.851 9.279 4.6 0.000453443 0.00518261 0.00165718 -20.3257 55.4792 19.5621
8 1 3 1.304 9.95 5.499 -0.00262132 0.00633623 -0.00223104 20.3122 -34.5321 -31.0475
9 1 6 1.981 7.955 4.677 0.000735014 0.000937383 -0.00305672 -11.196 96.6514 -4.65563
10 1 2 1.682 7.533 5.365 0.0182957 0.0201165 0.0110206 -44.8119 -56.6642 99.5468
11 1 2 2.363 7.522 4.04 0.014527 0.0125559 -0.00857533 56.288 -60.9011 -91.6318
12 1 8 2.237 8.379 2.125 0.00321881 0.0130214 0.00504154 -30.6616 -103.358 -15.213
13 1 8 3.859 11.46 0.404 -0.00715906 -0.0260286 -0.00159392 44.2084 38.2408 -92.848
14 1 1 3.6 12.738 2.295 0.0243851 -0.0124716 -0.0138001 32.9517 102.637 1.31775
15 1 1 2.669 11.778 4.193 -0.0160661 -0.00703074 0.0151706 -10.8189 58.331 91.4516
16 2 9 3.377 6.417 8.991 -0.000123905 -0.000105811 0.00463246 -2.75203 0.54486 1.06901
17 2 5 3.242 7.094 10.205 -0.00890581 0.000676694 0.000496601 -22.1656 -84.7998 -25.0857
18 2 7 2.726 6.557 11.308 0.00140355 -0.00184474 -0.000467983 -7.47746 -9.05633 7.5751
19 2 10 2.309 5.28 11.22 -0.0107814 -2.86319e-05 0.00250804 39.7922 44.0346 -74.6814
20 2 5 2.443 4.507 10.08 -0.00105869 -0.0106807 0.00940408 28.2191 91.6597 5.76828
21 2 5 2.99 5.078 8.953 0.00342097 0.00317093 0.000105049 -2.58933 59.7197 69.1472
22 2 4 3.918 7.077 7.77 0.000411825 0.0012925 0.00470091 19.8517 -54.0176 -19.2105
23 2 3 4.464 6.406 6.871 0.00348863 0.00344733 -0.00241885 -19.9938 34.2047 30.688
24 2 6 3.788 8.402 7.693 -0.00427226 0.000625246 -0.00856113 11.3975 -97.7994 5.01527
25 2 2 4.086 8.824 7.005 0.0172975 0.00434447 0.0181213 44.7936 56.8739 -99.7752
26 2 2 3.405 8.834 8.33 -0.00448121 -0.00911166 -0.0239142 -56.3936 60.9674 91.5992
27 2 8 3.531 7.977 10.246 -0.0305508 0.035461 -0.0126042 30.7052 103.312 15.0791
28 2 8 1.909 4.896 11.966 -0.00864784 0.00360246 -0.0172066 -44.1995 -38.2661 92.8396
29 2 1 2.169 3.618 10.075 -0.00224493 0.050259 0.0154446 -32.8527 -102.187 -1.09334
30 2 1 3.099 4.578 8.177 0.00205446 0.0161507 0.0065112 10.8164 -58.4071 -91.3942
31 3 9 0.768 3.987 3.638 -0.00203646 -0.00251406 -0.00247006 0.229389 3.85094 6.78103
32 3 5 18.9215 5.219 3.895 0.00172828 -0.00130086 -0.0014698 18.4738 -46.1761 -80.1183
33 3 7 18.4305 6.018 2.946 -0.00231919 -0.00416294 0.00186412 -4.69668 7.64656 -5.55728
34 3 10 18.5065 5.59 1.682 0.00350818 0.00180531 -0.00330094 36.4493 -60.2766 61.3245
35 3 5 19.0575 4.369 1.321 -0.00677096 -0.0070157 -0.00469497 -5.31895 35.2151 96.0974
36 3 5 0.809 3.561 2.315 -9.87623e-05 0.00482626 0.00186678 -35.4807 75.2891 27.273
37 3 4 1.387 3.136 4.707 0.00230595 0.000287787 -0.00453732 5.63267 -37.265 -49.4616
38 3 3 1.886 2.041 4.401 0.000605103 -0.000383214 0.00158605 -10.9549 31.9976 22.9963
39 3 6 1.412 3.606 5.955 0.000770044 -0.00474913 0.000268724 -8.78688 -28.7897 -93.9188
40 3 2 1.783 3.147 6.58 -0.0258433 0.00842204 -7.62506e-05 54.4686 -71.936 87.7316
41 3 2 1.057 4.369 6.133 -0.00398584 -0.00506386 0.0167312 -49.7687 109.234 25.277
42 3 8 18.8565 5.499 4.779 -0.022619 0.00522564 -0.0127183 -12.0464 41.0996 95.84
43 3 8 18.1735 6.139 1.009 0.0186172 0.007287 -0.00180074 -41.951 69.8706 -72.8101
44 3 1 19.0795 4.102 0.431 -0.0254199 -0.0197546 -0.00668984 2.10949 -30.3812 -102.682
45 3 1 1.181 2.736 2.101 -0.0170226 -0.00369569 -0.00122484 44.7621 -95.981 -27.7275
46 4 9 5 12.369 8.732 0.00277777 -0.00105925 -0.00236697 -0.549154 -2.87801 -6.24718
47 4 5 5.609 11.137 8.476 -0.00252474 -0.0019832 -0.000612391 -18.7303 46.3235 78.6159
48 4 7 6.1 10.338 9.424 0.00619248 -0.00287982 -0.00802989 4.79592 -7.35773 7.29693
49 4 10 6.024 10.767 10.689 -0.00509932 0.00260503 0.00317653 -36.1444 58.9877 -63.416
50 4 5 5.473 11.987 11.049 0.00135268 0.00249284 -0.00142183 4.76913 -33.831 -95.8054
51 4 5 4.959 12.796 10.055 0.00320446 -0.0148919 0.00583365 35.7564 -76.0398 -27.0559
52 4 4 4.381 13.221 7.663 0.00185459 -0.0012516 0.00757802 -5.27451 36.633 50.1274
53 4 3 3.882 14.316 7.969 0.000700633 0.00165324 0.00528756 10.9836 -32.0015 -23.0029
54 4 6 4.356 12.75 6.416 -0.000860078 0.00443372 0.00475388 8.33497 29.0761 92.5669
55 4 2 3.985 13.209 5.79 -0.00696075 0.011591 0.0180298 -54.2123 71.6766 -87.2624
56 4 2 4.711 11.987 6.237 0.0457935 -0.00320757 -0.0133483 49.7772 -109.116 -24.9932
57 4 8 5.674 10.858 7.591 0.0155914 0.00293888 0.0261744 12.1007 -41.0928 -95.391
58 4 8 6.357 10.218 11.361 -0.00660391 0.00597903 0.0109632 42.0884 -70.0413 73.28
59 4 1 5.451 12.254 11.939 0.00995917 0.0141265 0.00141815 -2.11714 30.3893 102.682
60 4 1 4.587 13.621 10.27 0.0157554 -0.0114905 -0.000561632 -44.7105 95.866 27.5556
601 41 9 3.3749 14.0165 15.7493 -0.0011281 -0.00474181 -0.000718153 2.62336 -2.13014 -1.50184
602 41 5 3.5099 13.3385 14.5353 0.00157216 0.00323365 0.00321083 22.331 85.7916 25.2963
603 41 7 4.0259 13.8765 13.4323 0.000936646 0.000742832 0.00353441 7.05812 7.69917 -7.52507
604 41 10 4.4429 15.1525 13.5203 -0.00798388 -0.00350637 0.00121646 -39.6687 -42.3452 75.7937
605 41 5 4.3089 15.9265 14.6613 -0.000357918 0.00040286 0.00724508 -28.0948 -93.1452 -7.52295
606 41 5 3.7619 15.3545 15.7873 -0.00208068 0.00511877 -0.0053325 2.6639 -58.5301 -68.559
607 41 4 2.8349 13.3555 16.9703 0.0161261 0.00888648 -0.00715569 -20.3257 55.4792 19.5621
608 41 3 2.2879 14.0265 17.8693 -0.00108044 -0.00433736 -0.00833097 20.3122 -34.5321 -31.0475
609 41 6 2.9649 12.0315 17.0473 -0.00519337 -0.000304759 0.0011356 -11.196 96.6514 -4.65563
610 41 2 2.6659 11.6095 17.7353 0.0307723 0.00302565 0.0131507 -44.8119 -56.6642 99.5468
611 41 2 3.3469 11.5985 16.4103 0.0230737 -0.00940242 0.00675033 56.288 -60.9011 -91.6318
612 41 8 3.2209 12.4555 14.4953 -0.00144527 0.00980084 0.0099921 -30.6616 -103.358 -15.213
613 41 8 4.8429 15.5365 12.7743 -0.00830916 0.0198308 -0.0138598 44.2084 38.2408 -92.848
614 41 1 4.5839 16.8145 14.6653 -0.00560991 -0.00561171 -0.00317898 32.9517 102.637 1.31775
615 41 1 3.6529 15.8545 16.5633 0.0164582 0.0154409 0.00283203 -10.8189 58.331 91.4516
616 42 9 4.3609 10.4935 21.3613 -0.00347928 0.000670683 0.00358085 -2.75203 0.54486 1.06901
617 42 5 4.2259 11.1705 22.5753 -0.00285258 0.000598593 -0.00303031 -22.1656 -84.7998 -25.0857
618 42 7 3.7099 10.6335 23.6783 -0.00564967 -0.00342785 -0.00281463 -7.47746 -9.05633 7.5751
619 42 10 3.2929 9.35654 23.5903 -0.00274959 -0.00173219 0.00105449 39.7922 44.0346 -74.6814
620 42 5 3.4269 8.58354 22.4503 -0.00167084 0.00824727 0.00462777 28.2191 91.6597 5.76828
621 42 5 3.9739 9.15454 21.3233 -0.00927168 0.00228101 0.000225444 -2.58933 59.7197 69.1472
622 42 4 4.9019 11.1535 20.1403 0.00549218 -0.00432047 0.00155295 19.8517 -54.0176 -19.2105
623 42 3 5.4479 10.4825 19.2413 -0.00369902 -0.000702337 -0.00345847 -19.9938 34.2047 30.688
624 42 6 4.7719 12.4785 20.0633 -0.000938717 -0.00365986 0.00794431 11.3975 -97.7994 5.01527
625 42 2 5.0699 12.9005 19.3753 -0.0177891 0.012912 0.0401217 44.7936 56.8739 -99.7752
626 42 2 4.3889 12.9105 20.7003 -0.0148525 -0.00955087 0.00898831 -56.3936 60.9674 91.5992
627 42 8 4.5149 12.0535 22.6163 -0.0087175 -0.00687977 0.0198257 30.7052 103.312 15.0791
628 42 8 2.8929 8.97254 24.3363 0.0259846 -0.0141907 -2.50923e-05 -44.1995 -38.2661 92.8396
629 42 1 3.1529 7.69454 22.4453 -0.000862197 -0.00300971 0.0113171 -32.8527 -102.187 -1.09334
630 42 1 4.0829 8.65454 20.5473 -0.00200759 -0.0137547 -0.0121915 10.8164 -58.4071 -91.3942
631 43 9 1.7519 8.06354 16.0083 0.00593432 -0.00180664 0.00167476 0.229389 3.85094 6.78103
632 43 5 19.9054 9.29554 16.2653 -0.00465497 0.00562307 0.00216731 18.4738 -46.1761 -80.1183
633 43 7 19.4144 10.0945 15.3163 0.000904792 0.00830208 0.00257785 -4.69668 7.64656 -5.55728
634 43 10 19.4904 9.66654 14.0523 0.00472001 -0.00957713 0.00470656 36.4493 -60.2766 61.3245
635 43 5 20.0414 8.44554 13.6913 -0.00317766 0.0027008 0.00126126 -5.31895 35.2151 96.0974
636 43 5 1.7929 7.63754 14.6853 -0.00459115 0.00771159 0.00329236 -35.4807 75.2891 27.273
637 43 4 2.3709 7.21254 17.0773 -0.00647487 0.00300194 -0.00134736 5.63267 -37.265 -49.4616
638 43 3 2.8699 6.11754 16.7713 0.00122921 -0.00206836 1.17249e-08 -10.9549 31.9976 22.9963
639 43 6 2.3959 7.68254 18.3253 0.00197666 -0.002084 -0.0048221 -8.78688 -28.7897 -93.9188
640 43 2 2.7669 7.22354 18.9503 -0.013834 -0.0069199 0.00909321 54.4686 -71.936 87.7316
641 43 2 2.0409 8.44554 18.5033 0.000518553 -0.0168794 -0.0132145 -49.7687 109.234 25.277
642 43 8 19.8404 9.57554 17.1493 -0.0160705 -0.00915603 -0.00458345 -12.0464 41.0996 95.84
643 43 8 19.1574 10.2155 13.3793 -0.0180133 0.000526566 0.00478607 -41.951 69.8706 -72.8101
644 43 1 20.0634 8.17854 12.8013 0.00939906 -0.0160893 -0.0107005 2.10949 -30.3812 -102.682
645 43 1 2.1649 6.81254 14.4713 -0.014793 0.00721385 0.0102241 44.7621 -95.981 -27.7275
646 44 9 5.9839 16.4455 21.1023 -0.00392934 -0.00254599 -0.00267204 -0.549154 -2.87801 -6.24718
647 44 5 6.5929 15.2135 20.8463 0.000649601 0.000324813 -0.00363871 -18.7303 46.3235 78.6159
648 44 7 7.0839 14.4145 21.7943 -0.0055903 -0.00591315 -6.22636e-05 4.79592 -7.35773 7.29693
649 44 10 7.0079 14.8435 23.0593 0.00589241 0.00487475 -0.00100929 -36.1444 58.9877 -63.416
650 44 5 6.4569 16.0635 23.4193 0.00230856 -0.00380896 0.00294447 4.76913 -33.831 -95.8054
651 44 5 5.9429 16.8725 22.4253 -0.0018763 0.000718834 0.00341032 35.7564 -76.0398 -27.0559
652 44 4 5.3649 17.2975 20.0333 0.000824413 -0.00624698 -0.00458948 -5.27451 36.633 50.1274
653 44 3 4.8659 18.3925 20.3393 -0.00465381 0.000625894 0.00198588 10.9836 -32.0015 -23.0029
654 44 6 5.3399 16.8265 18.7863 -0.00389911 0.0020061 0.0010799 8.33497 29.0761 92.5669
655 44 2 4.9689 17.2855 18.1603 -0.00351752 -0.0207089 -0.0167012 -54.2123 71.6766 -87.2624
656 44 2 5.6949 16.0635 18.6073 0.000129573 -0.0330192 -0.000113967 49.7772 -109.116 -24.9932
657 44 8 6.6579 14.9345 19.9613 -0.0232194 -0.0207357 0.0220348 12.1007 -41.0928 -95.391
658 44 8 7.3409 14.2945 23.7313 0.0126893 -0.0416574 0.00325434 42.0884 -70.0413 73.28
659 44 1 6.4349 16.3305 24.3093 0.0254239 -0.017235 0.0345856 -2.11714 30.3893 102.682
660 44 1 5.5709 17.6975 22.6403 0.0108548 -0.00796464 -0.0353552 -44.7105 95.866 27.5556
301 21 9 3.42215 22.2197 3.379 0.0067815 -0.000644453 -0.0033911 2.62336 -2.13014 -1.50184
302 21 5 3.55715 21.5417 2.165 -0.00285075 -0.0038647 -0.00628127 22.331 85.7916 25.2963
303 21 7 4.07315 22.0797 1.062 0.00272224 0.005312 -0.00749444 7.05812 7.69917 -7.52507
304 21 10 4.49015 23.3557 1.15 0.00469372 0.00068605 -0.00107538 -39.6687 -42.3452 75.7937
305 21 5 4.35615 24.1297 2.291 -0.00191855 0.0011443 0.00154402 -28.0948 -93.1452 -7.52295
306 21 5 3.80915 23.5577 3.417 0.00367015 -0.00552626 -0.00667472 2.6639 -58.5301 -68.559
307 21 4 2.88215 21.5587 4.6 -0.0026518 -0.00514854 -0.00191888 -20.3257 55.4792 19.5621
308 21 3 2.33515 22.2297 5.499 0.00539263 0.00275487 0.00231555 20.3122 -34.5321 -31.0475
309 21 6 3.01215 20.2347 4.677 0.00221765 -0.000914786 -0.0054583 -11.196 96.6514 -4.65563
310 21 2 2.71315 19.8127 5.365 -0.0197541 0.00189425 -0.0119001 -44.8119 -56.6642 99.5468
311 21 2 3.39415 19.8017 4.04 0.00871558 0.0065796 0.0210844 56.288 -60.9011 -91.6318
312 21 8 3.26815 20.6587 2.125 -0.000209643 -0.0139618 0.0305464 -30.6616 -103.358 -15.213
313 21 8 4.89015 23.7397 0.404 -0.020185 -0.0203515 0.00671134 44.2084 38.2408 -92.848
314 21 1 4.63115 25.0177 2.295 -0.00306684 0.020888 0.0111276 32.9517 102.637 1.31775
315 21 1 3.70015 24.0577 4.193 0.00723095 -0.00880767 0.0101293 -10.8189 58.331 91.4516
316 22 9 4.40815 18.6967 8.991 -0.00609297 -0.00212476 0.00404872 -2.75203 0.54486 1.06901
317 22 5 4.27315 19.3737 10.205 -0.00400878 0.00109424 -0.00395335 -22.1656 -84.7998 -25.0857
318 22 7 3.75715 18.8367 11.308 -0.00107872 -0.00253965 -0.0012242 -7.47746 -9.05633 7.5751
319 22 10 3.34015 17.5597 11.22 0.00314274 -0.00354133 1.29648e-05 39.7922 44.0346 -74.6814
320 22 5 3.47415 16.7867 10.08 -0.00319759 0.00259141 -0.00413172 28.2191 91.6597 5.76828
321 22 5 4.02115 17.3577 8.953 -0.000825579 0.000804471 -0.00239423 -2.58933 59.7197 69.1472
322 22 4 4.94915 19.3567 7.77 0.00327603 0.00683942 -0.00685761 19.8517 -54.0176 -19.2105
323 22 3 5.49515 18.6857 6.871 -0.00150345 0.000377582 -0.00138258 -19.9938 34.2047 30.688
324 22 6 4.81915 20.6817 7.693 -5.15615e-05 0.00140266 0.00371651 11.3975 -97.7994 5.01527
325 22 2 5.11715 21.1037 7.005 -0.00739868 0.00959346 0.0105109 44.7936 56.8739 -99.7752
326 22 2 4.43615 21.1137 8.33 0.0250694 -0.0110176 -0.0107703 -56.3936 60.9674 91.5992
327 22 8 4.56215 20.2567 10.246 0.0108649 -0.00235601 0.000471282 30.7052 103.312 15.0791
328 22 8 2.94015 17.1757 11.966 -0.00632551 0.0151718 -0.00489312 -44.1995 -38.2661 92.8396
329 22 1 3.20015 15.8977 10.075 0.00756235 0.0196032 0.0174592 -32.8527 -102.187 -1.09334
330 22 1 4.13015 16.8577 8.177 -0.0229671 0.0194163 0.0212283 10.8164 -58.4071 -91.3942
331 23 9 1.79915 16.2667 3.638 0.00393621 0.00870035 -0.00366444 0.229389 3.85094 6.78103
332 23 5 19.9527 17.4987 3.895 -0.0011257 -0.00513815 -0.000332764 18.4738 -46.1761 -80.1183
333 23 7 19.4617 18.2977 2.946 0.0049196 0.00932138 0.0045363 -4.69668 7.64656 -5.55728
334 23 10 19.5377 17.8697 1.682 -1.94651e-05 -0.00121578 -0.0026642 36.4493 -60.2766 61.3245
335 23 5 20.0887 16.6487 1.321 -0.00120003 -0.00291452 0.00272243 -5.31895 35.2151 96.0974
336 23 5 1.84015 15.8407 2.315 0.00260862 -0.00104889 0.00579181 -35.4807 75.2891 27.273
337 23 4 2.41815 15.4157 4.707 0.0063186 0.00431345 -0.00021838 5.63267 -37.265 -49.4616
338 23 3 2.91715 14.3207 4.401 0.00532087 -0.0017904 -0.00449264 -10.9549 31.9976 22.9963
339 23 6 2.44315 15.8857 5.955 -6.67533e-05 0.00297134 0.0017807 -8.78688 -28.7897 -93.9188
340 23 2 2.81415 15.4267 6.58 -0.0359839 0.00452135 -0.00282511 54.4686 -71.936 87.7316
341 23 2 2.08815 16.6487 6.133 0.0295207 -0.00661313 -0.00969582 -49.7687 109.234 25.277
342 23 8 19.8877 17.7787 4.779 -0.0243141 -0.0147879 -0.00896203 -12.0464 41.0996 95.84
343 23 8 19.2047 18.4187 1.009 -0.00899132 0.0125261 -0.00997873 -41.951 69.8706 -72.8101
344 23 1 20.1107 16.3817 0.431 0.0247559 0.0105433 0.0142259 2.10949 -30.3812 -102.682
345 23 1 2.21215 15.0157 2.101 0.0290961 0.0165521 -0.0223055 44.7621 -95.981 -27.7275
346 24 9 6.03115 24.6487 8.732 0.00583843 -0.00422369 -0.0143086 -0.549154 -2.87801 -6.24718
347 24 5 6.64015 23.4167 8.476 -0.00847741 0.00121692 -0.00706957 -18.7303 46.3235 78.6159
348 24 7 7.13115 22.6177 9.424 -0.0056808 0.0062108 -0.000820918 4.79592 -7.35773 7.29693
349 24 10 7.05515 23.0467 10.689 -0.00318792 0.00550227 -0.00239347 -36.1444 58.9877 -63.416
350 24 5 6.50415 24.2667 11.049 0.00295161 0.00412973 0.0103327 4.76913 -33.831 -95.8054
351 24 5 5.99015 25.0757 10.055 -0.00306795 -0.00305856 0.00238058 35.7564 -76.0398 -27.0559
352 24 4 5.41215 25.5007 7.663 0.0123981 0.00258837 0.00661353 -5.27451 36.633 50.1274
353 24 3 4.91315 26.5957 7.969 -0.00403226 0.000488662 0.000405979 10.9836 -32.0015 -23.0029
354 24 6 5.38715 25.0297 6.416 -0.00368355 0.00156523 -0.00616881 8.33497 29.0761 92.5669
355 24 2 5.01615 25.4887 5.79 0.0195272 -0.0180052 -0.00533275 -54.2123 71.6766 -87.2624
356 24 2 5.74215 24.2667 6.237 0.012721 0.00652149 -0.00961838 49.7772 -109.116 -24.9932
357 24 8 6.70515 23.1377 7.591 -0.015336 0.0258443 0.0214853 12.1007 -41.0928 -95.391
358 24 8 7.38815 22.4977 11.361 0.0329588 0.0371777 -0.00169766 42.0884 -70.0413 73.28
359 24 1 6.48215 24.5337 11.939 0.00325261 0.0105002 -0.0233226 -2.11714 30.3893 102.682
360 24 1 5.61815 25.9007 10.27 0.0185444 -0.020201 0.0293012 -44.7105 95.866 27.5556
901 61 9 4.40606 26.2962 15.7493 -0.0113849 -0.00390246 -0.00262141 2.62336 -2.13014 -1.50184
902 61 5 4.54106 25.6182 14.5353 0.000619909 0.00165197 -0.00282734 22.331 85.7916 25.2963
903 61 7 5.05706 26.1562 13.4323 -0.00227462 -0.00179837 0.00327781 7.05812 7.69917 -7.52507
904 61 10 5.47406 27.4322 13.5203 0.00347533 -0.000845668 0.00544213 -39.6687 -42.3452 75.7937
905 61 5 5.34006 28.2062 14.6613 -0.00414659 0.00286179 -0.00232993 -28.0948 -93.1452 -7.52295
906 61 5 4.79306 27.6342 15.7873 -0.00857042 0.0059087 0.00156349 2.6639 -58.5301 -68.559
907 61 4 3.86606 25.6352 16.9703 0.000987908 4.86892e-05 -0.000716595 -20.3257 55.4792 19.5621
908 61 3 3.31906 26.3062 17.8693 -0.00248111 -0.0051168 0.00504595 20.3122 -34.5321 -31.0475
909 61 6 3.99606 24.3112 17.0473 -0.0053839 -0.00126365 0.00540709 -11.196 96.6514 -4.65563
910 61 2 3.69706 23.8892 17.7353 -0.00521232 -0.0139292 0.0306307 -44.8119 -56.6642 99.5468
911 61 2 4.37806 23.8782 16.4103 -7.3843e-05 -0.00107908 -0.00943165 56.288 -60.9011 -91.6318
912 61 8 4.25206 24.7352 14.4953 -0.0189424 0.00187336 -0.0294963 -30.6616 -103.358 -15.213
913 61 8 5.87406 27.8162 12.7743 -0.00790464 -0.0164136 0.0103495 44.2084 38.2408 -92.848
914 61 1 5.61506 29.0942 14.6653 -0.00713599 0.00250663 0.0221152 32.9517 102.637 1.31775
915 61 1 4.68406 28.1342 16.5633 -0.0336092 -0.0130391 -0.00873749 -10.8189 58.331 91.4516
916 62 9 5.39206 22.7732 21.3613 -0.00308263 0.000661693 0.00458538 -2.75203 0.54486 1.06901
917 62 5 5.25706 23.4502 22.5753 0.00229036 0.00117737 0.00262511 -22.1656 -84.7998 -25.0857
918 62 7 4.74106 22.9132 23.6783 -0.000728032 -0.00196627 -0.00238428 -7.47746 -9.05633 7.5751
919 62 10 4.32406 21.6362 23.5903 0.00380653 0.00272493 0.00228259 39.7922 44.0346 -74.6814
920 62 5 4.45806 20.8632 22.4503 0.00231164 -0.000743462 -0.00415562 28.2191 91.6597 5.76828
921 62 5 5.00506 21.4342 21.3233 0.000979092 0.00101989 -0.00303246 -2.58933 59.7197 69.1472
922 62 4 5.93306 23.4332 20.1403 0.00355599 0.00422259 -0.00760765 19.8517 -54.0176 -19.2105
923 62 3 6.47906 22.7622 19.2413 0.00444926 0.000842872 0.00254328 -19.9938 34.2047 30.688
924 62 6 5.80306 24.7582 20.0633 -0.00367594 -0.00549657 0.00913097 11.3975 -97.7994 5.01527
925 62 2 6.10106 25.1802 19.3753 0.0103061 0.0273351 -0.00407537 44.7936 56.8739 -99.7752
926 62 2 5.42006 25.1902 20.7003 0.0215579 -0.00412317 -0.0266759 -56.3936 60.9674 91.5992
927 62 8 5.54606 24.3332 22.6163 -0.0313267 -0.0241421 -0.00927299 30.7052 103.312 15.0791
928 62 8 3.92406 21.2522 24.3363 0.0173564 -0.0131296 0.00622188 -44.1995 -38.2661 92.8396
929 62 1 4.18406 19.9742 22.4453 -0.00744118 0.00622236 0.00536317 -32.8527 -102.187 -1.09334
930 62 1 5.11406 20.9342 20.5473 -0.00153255 -0.0341725 0.0128411 10.8164 -58.4071 -91.3942
931 63 9 2.78306 20.3432 16.0083 0.00675588 -0.00337948 0.00113996 0.229389 3.85094 6.78103
932 63 5 20.9366 21.5752 16.2653 -0.00498329 0.00082494 -0.000466056 18.4738 -46.1761 -80.1183
933 63 7 20.4456 22.3742 15.3163 -0.00512484 -0.0022942 0.000670971 -4.69668 7.64656 -5.55728
934 63 10 20.5216 21.9462 14.0523 -0.00340201 -0.00400133 -0.00404866 36.4493 -60.2766 61.3245
935 63 5 21.0726 20.7252 13.6913 -0.00388079 -0.0046453 0.00319014 -5.31895 35.2151 96.0974
936 63 5 2.82406 19.9172 14.6853 -0.000433098 0.000810982 -0.00657065 -35.4807 75.2891 27.273
937 63 4 3.40206 19.4922 17.0773 0.0049565 -0.00752885 -0.00145185 5.63267 -37.265 -49.4616
938 63 3 3.90106 18.3972 16.7713 0.00785299 0.0102115 -0.00402136 -10.9549 31.9976 22.9963
939 63 6 3.42706 19.9622 18.3253 0.00307294 -0.00286696 -0.00400602 -8.78688 -28.7897 -93.9188
940 63 2 3.79806 19.5032 18.9503 0.033409 0.00212755 0.0133101 54.4686 -71.936 87.7316
941 63 2 3.07206 20.7252 18.5033 -0.0134143 -0.015862 0.00294092 -49.7687 109.234 25.277
942 63 8 20.8716 21.8552 17.1493 0.0225898 0.00507927 -0.00468679 -12.0464 41.0996 95.84
943 63 8 20.1886 22.4952 13.3793 0.00427898 0.0218903 -0.00989837 -41.951 69.8706 -72.8101
944 63 1 21.0946 20.4582 12.8013 0.013306 0.0134808 -0.00790519 2.10949 -30.3812 -102.682
945 63 1 3.19606 19.0922 14.4713 0.0344264 -0.0161658 0.000629387 44.7621 -95.981 -27.7275
946 64 9 7.01506 28.7252 21.1023 0.00549503 -0.00117389 0.00224244 -0.549154 -2.87801 -6.24718
947 64 5 7.62406 27.4932 20.8463 0.00365419 0.00318135 -0.00280492 -18.7303 46.3235 78.6159
948 64 7 8.11506 26.6942 21.7943 0.00274311 -0.000445748 0.00145258 4.79592 -7.35773 7.29693
949 64 10 8.03906 27.1232 23.0593 0.0044525 -0.00474437 0.0017184 -36.1444 58.9877 -63.416
950 64 5 7.48806 28.3432 23.4193 0.00570526 -0.00490081 0.000678633 4.76913 -33.831 -95.8054
951 64 5 6.97406 29.1522 22.4253 -0.010304 0.000258166 -0.00588241 35.7564 -76.0398 -27.0559
952 64 4 6.39606 29.5772 20.0333 -0.00157484 0.00575957 -0.000921739 -5.27451 36.633 50.1274
953 64 3 5.89706 30.6722 20.3393 0.00482369 0.000763263 -0.003413 10.9836 -32.0015 -23.0029
954 64 6 6.37106 29.1062 18.7863 -0.0043461 0.00159923 0.00364536 8.33497 29.0761 92.5669
955 64 2 6.00006 29.5652 18.1603 0.0151988 0.0165007 -0.0280071 -54.2123 71.6766 -87.2624
956 64 2 6.72606 28.3432 18.6073 -0.00726885 -0.00137254 0.0154618 49.7772 -109.116 -24.9932
957 64 8 7.68906 27.2142 19.9613 0.000438393 -0.0139664 0.0187564 12.1007 -41.0928 -95.391
958 64 8 8.37206 26.5742 23.7313 -0.0178542 -0.0101481 0.0237908 42.0884 -70.0413 73.28
959 64 1 7.46606 28.6102 24.3093 -0.00958608 0.00301264 0.0234914 -2.11714 30.3893 102.682
960 64 1 6.60206 29.9772 22.6403 0.00285191 0.00248407 -0.0213754 -44.7105 95.866 27.5556
61 5 9 6.1435 9.94 3.379 -0.000389549 0.0079269 0.00595053 2.62336 -2.13014 -1.50184
62 5 5 6.2785 9.262 2.165 0.00508693 -0.00532695 0.00106105 22.331 85.7916 25.2963
63 5 7 6.7945 9.8 1.062 0.00106576 -0.000454682 -0.000701987 7.05812 7.69917 -7.52507
64 5 10 7.2115 11.076 1.15 -0.00644852 0.000352293 -0.00846946 -39.6687 -42.3452 75.7937
65 5 5 7.0775 11.85 2.291 -0.000645275 0.00414987 0.0065764 -28.0948 -93.1452 -7.52295
66 5 5 6.5305 11.278 3.417 -0.000591465 -0.0057392 -0.00212503 2.6639 -58.5301 -68.559
67 5 4 5.6035 9.279 4.6 0.00612879 0.00656745 0.00379225 -20.3257 55.4792 19.5621
68 5 3 5.0565 9.95 5.499 0.00353061 -0.00332061 -0.0063163 20.3122 -34.5321 -31.0475
69 5 6 5.7335 7.955 4.677 0.00475964 0.004532 0.00255437 -11.196 96.6514 -4.65563
70 5 2 5.4345 7.533 5.365 -0.00677398 0.0127541 0.00875314 -44.8119 -56.6642 99.5468
71 5 2 6.1155 7.522 4.04 0.00989275 0.0198782 -0.00953825 56.288 -60.9011 -91.6318
72 5 8 5.9895 8.379 2.125 -0.0100137 -0.00330397 -0.010795 -30.6616 -103.358 -15.213
73 5 8 7.6115 11.46 0.404 -0.0227465 -0.0112487 -0.0166467 44.2084 38.2408 -92.848
74 5 1 7.3525 12.738 2.295 0.0152507 0.01029 0.0107499 32.9517 102.637 1.31775
75 5 1 6.4215 11.778 4.193 -0.025429 -0.00936842 0.0111603 -10.8189 58.331 91.4516
76 6 9 7.1295 6.417 8.991 -0.00247278 -0.00150052 -0.00406838 -2.75203 0.54486 1.06901
77 6 5 6.9945 7.094 10.205 -0.00527906 0.00146362 -0.00100015 -22.1656 -84.7998 -25.0857
78 6 7 6.4785 6.557 11.308 0.00135972 -0.0015886 -0.000452956 -7.47746 -9.05633 7.5751
79 6 10 6.0615 5.28 11.22 0.00268119 -0.00570987 0.00488986 39.7922 44.0346 -74.6814
80 6 5 6.1955 4.507 10.08 0.0029008 0.00452478 0.00418641 28.2191 91.6597 5.76828
81 6 5 6.7425 5.078 8.953 0.00505991 0.00621851 0.00111381 -2.58933 59.7197 69.1472
82 6 4 7.6705 7.077 7.77 -0.00267773 -0.00346525 -0.0043633 19.8517 -54.0176 -19.2105
83 6 3 8.2165 6.406 6.871 -0.00262952 0.00109511 0.00109306 -19.9938 34.2047 30.688
84 6 6 7.5405 8.402 7.693 0.00662601 0.00860579 0.00588134 11.3975 -97.7994 5.01527
85 6 2 7.8385 8.824 7.005 0.0188681 -0.0160616 -0.00228248 44.7936 56.8739 -99.7752
86 6 2 7.1575 8.834 8.33 -0.002816 0.0173829 -0.000267551 -56.3936 60.9674 91.5992
87 6 8 7.2835 7.977 10.246 0.00375979 0.0201758 -0.0129085 30.7052 103.312 15.0791
88 6 8 5.6615 4.896 11.966 0.0173881 0.00119916 -0.0166559 -44.1995 -38.2661 92.8396
89 6 1 5.9215 3.618 10.075 0.0121393 -0.0263037 -0.0410551 -32.8527 -102.187 -1.09334
90 6 1 6.8515 4.578 8.177 0.0108575 -0.0115675 -0.0205424 10.8164 -58.4071 -91.3942
91 7 9 4.5205 3.987 3.638 -0.00482876 -0.00983409 -0.010041 0.229389 3.85094 6.78103
92 7 5 3.9115 5.219 3.895 -0.00232561 -0.0020014 -0.000379026 18.4738 -46.1761 -80.1183
93 7 7 3.4205 6.018 2.946 -0.00563492 -0.00321278 0.00551694 -4.69668 7.64656 -5.55728
94 7 10 3.4965 5.59 1.682 0.00518717 0.00760317 0.00101752 36.4493 -60.2766 61.3245
95 7 5 4.0475 4.369 1.321 0.000578954 4.019e-05 0.00367886 -5.31895 35.2151 96.0974
96 7 5 4.5615 3.561 2.315 -0.000374048 -0.00222429 -0.0081871 -35.4807 75.2891 27.273
97 7 4 5.1395 3.136 4.707 0.00934156 0.000745154 0.00785876 5.63267 -37.265 -49.4616
98 7 3 5.6385 2.041 4.401 -0.00597878 -0.00487094 0.00558643 -10.9549 31.9976 22.9963
99 7 6 5.1645 3.606 5.955 0.00602577 0.0108948 0.00405655 -8.78688 -28.7897 -93.9188
100 7 2 5.5355 3.147 6.58 -0.0206801 0.0125298 0.00196809 54.4686 -71.936 87.7316
101 7 2 4.8095 4.369 6.133 0.00980743 -0.00748014 -0.00603465 -49.7687 109.234 25.277
102 7 8 3.8465 5.499 4.779 0.0288173 0.00746492 -0.012079 -12.0464 41.0996 95.84
103 7 8 3.1635 6.139 1.009 -0.0082663 0.0266448 0.0238878 -41.951 69.8706 -72.8101
104 7 1 4.0695 4.102 0.431 0.00754615 0.0143563 -0.0121783 2.10949 -30.3812 -102.682
105 7 1 4.9335 2.736 2.101 -0.0129767 -0.000427131 0.0114167 44.7621 -95.981 -27.7275
106 8 9 8.7525 12.369 8.732 0.00373642 -0.000855439 0.00030029 -0.549154 -2.87801 -6.24718
107 8 5 9.3615 11.137 8.476 0.00262311 0.011275 0.000727904 -18.7303 46.3235 78.6159
108 8 7 9.8525 10.338 9.424 -0.00296123 -0.00569196 -0.00170402 4.79592 -7.35773 7.29693
109 8 10 9.7765 10.767 10.689 0.00700035 -0.00644169 0.00609653 -36.1444 58.9877 -63.416
110 8 5 9.2255 11.987 11.049 0.00447877 -0.0081322 0.00176977 4.76913 -33.831 -95.8054
111 8 5 8.7115 12.796 10.055 -0.00192479 0.00488688 -0.00469911 35.7564 -76.0398 -27.0559
112 8 4 8.1335 13.221 7.663 0.00510835 0.00658711 0.000889309 -5.27451 36.633 50.1274
113 8 3 7.6345 14.316 7.969 -0.00352853 0.0038187 0.000231273 10.9836 -32.0015 -23.0029
114 8 6 8.1085 12.75 6.416 -0.00256477 0.00508613 -0.0111332 8.33497 29.0761 92.5669
115 8 2 7.7375 13.209 5.79 -0.0178061 -0.00303099 0.0128746 -54.2123 71.6766 -87.2624
116 8 2 8.4635 11.987 6.237 -0.00791831 0.0102992 0.0270326 49.7772 -109.116 -24.9932
117 8 8 9.4265 10.858 7.591 -0.0175271 0.0186174 -0.00267981 12.1007 -41.0928 -95.391
118 8 8 10.1095 10.218 11.361 -0.0362798 0.0241589 0.00817822 42.0884 -70.0413 73.28
119 8 1 9.2035 12.254 11.939 0.00628684 0.0300864 0.0189708 -2.11714 30.3893 102.682
120 8 1 8.3395 13.621 10.27 -0.0240566 -0.0150527 0.00462583 -44.7105 95.866 27.5556
661 45 9 7.1274 14.0165 15.7493 -0.0032326 0.00378432 -0.000223035 2.62336 -2.13014 -1.50184
662 45 5 7.2624 13.3385 14.5353 0.000599593 0.00331776 0.00884506 22.331 85.7916 25.2963
663 45 7 7.7784 13.8765 13.4323 -0.000917215 0.00215931 0.00777625 7.05812 7.69917 -7.52507
664 45 10 8.1954 15.1525 13.5203 -0.000731753 -0.00288258 0.00110405 -39.6687 -42.3452 75.7937
665 45 5 8.0614 15.9265 14.6613 0.00722452 0.0039133 0.0011149 -28.0948 -93.1452 -7.52295
666 45 5 7.5144 15.3545 15.7873 0.000243105 0.00187036 0.00684527 2.6639 -58.5301 -68.559
667 45 4 6.5874 13.3555 16.9703 -0.00125589 -0.00859325 -2.70786e-05 -20.3257 55.4792 19.5621
668 45 3 6.0404 14.0265 17.8693 0.00214854 -0.00168102 -0.0015816 20.3122 -34.5321 -31.0475
669 45 6 6.7174 12.0315 17.0473 0.00459521 -0.00182876 -0.00473813 -11.196 96.6514 -4.65563
670 45 2 6.4184 11.6095 17.7353 0.00591663 0.0194038 0.0052909 -44.8119 -56.6642 99.5468
671 45 2 7.0994 11.5985 16.4103 -0.000564549 -0.0103283 -0.00781357 56.288 -60.9011 -91.6318
672 45 8 6.9734 12.4555 14.4953 0.0213153 -0.0287902 -0.0104485 -30.6616 -103.358 -15.213
673 45 8 8.5954 15.5365 12.7743 0.00837998 -0.00422063 0.00193381 44.2084 38.2408 -92.848
674 45 1 8.3364 16.8145 14.6653 -0.0293113 -0.0163718 0.00566671 32.9517 102.637 1.31775
675 45 1 7.4054 15.8545 16.5633 0.000306661 0.00546097 -1.88139e-05 -10.8189 58.331 91.4516
676 46 9 8.1134 10.4935 21.3613 0.00440162 0.000505665 -0.00494989 -2.75203 0.54486 1.06901
677 46 5 7.9784 11.1705 22.5753 -0.000491145 0.00163203 -0.00363389 -22.1656 -84.7998 -25.0857
678 46 7 7.4624 10.6335 23.6783 -0.00560385 0.00816932 -0.00237781 -7.47746 -9.05633 7.5751
679 46 10 7.0454 9.35654 23.5903 0.00979934 -0.00607505 0.000553527 39.7922 44.0346 -74.6814
680 46 5 7.1794 8.58354 22.4503 0.00312021 -0.0104168 0.000825975 28.2191 91.6597 5.76828
681 46 5 7.7264 9.15454 21.3233 0.00194303 0.00853815 -0.00201115 -2.58933 59.7197 69.1472
682 46 4 8.6544 11.1535 20.1403 -0.000218943 0.000340859 0.002737 19.8517 -54.0176 -19.2105
683 46 3 9.2004 10.4825 19.2413 0.00430408 0.00527442 0.00106016 -19.9938 34.2047 30.688
684 46 6 8.5244 12.4785 20.0633 -0.00205775 -0.00532784 0.000753231 11.3975 -97.7994 5.01527
685 46 2 8.8224 12.9005 19.3753 0.0214795 -0.0110237 0.0206375 44.7936 56.8739 -99.7752
686 46 2 8.1414 12.9105 20.7003 0.0184899 0.00505408 -0.00781706 -56.3936 60.9674 91.5992
687 46 8 8.2674 12.0535 22.6163 0.0107245 0.00239032 -0.0282513 30.7052 103.312 15.0791
688 46 8 6.6454 8.97254 24.3363 0.0167362 -0.00906512 0.0125979 -44.1995 -38.2661 92.8396
689 46 1 6.9054 7.69454 22.4453 0.00233468 0.0136516 5.48614e-05 -32.8527 -102.187 -1.09334
690 46 1 7.8354 8.65454 20.5473 -0.00960304 0.00209878 -0.00216676 10.8164 -58.4071 -91.3942
691 47 9 5.5044 8.06354 16.0083 -0.000434369 -8.92867e-05 0.00885691 0.229389 3.85094 6.78103
692 47 5 4.8954 9.29554 16.2653 -0.00637299 -0.00117224 0.00296016 18.4738 -46.1761 -80.1183
693 47 7 4.4044 10.0945 15.3163 -0.00540957 0.00222752 -0.00587023 -4.69668 7.64656 -5.55728