LAMMPS data file via write_data, version 24 Mar 2022, timestep = 16

1200 atoms
10 atom types
1200 bonds
8 bond types
1760 angles
12 angle types
2240 dihedrals
17 dihedral types
560 impropers
5 improper types

0 18.7625 xlo xhi
0 24.5593637104 ylo yhi
0 24.740606862 zlo zhi
2.0623073912 1.9678073368 8.1530720192 xy xz yz

Masses

1 1.008
2 1.008
3 16
4 12.01
5 12.01
6 14.01
7 14.01
8 1.008
9 12.01
10 12.01

Atoms # full

1 1 9 -0.326615 2.3565308980399773 9.985501313801915 3.351950393055543 0 0 0
2 1 5 0.380568 2.5277168479037857 9.255583418983479 2.174320722088005 0 0 0
3 1 7 -0.585364 3.0548465970680683 9.77973267470883 1.080517131955954 0 0 0
4 1 10 0.384166 3.3714068388459 11.064738289349647 1.1308047819261138 0 0 0
5 1 5 -0.38538 3.3186430470443353 11.843598796726381 2.3045796359970887 0 0 0
6 1 5 0.173788 2.724236748326185 11.31085813222915 3.4597353355562115 0 0 0
7 1 4 0.6054 1.845191303229191 9.346604963694672 4.577917613323985 0 0 0
8 1 3 -0.479634 1.275195524850418 9.991172892047311 5.4552379332903875 0 0 0
9 1 6 -0.779885 1.975221070533264 7.993603098524674 4.6500405341788955 0 0 0
10 1 2 0.357505 1.8095128639485694 7.530835427555392 5.5322050283965085 0 0 0
11 1 2 0.357505 2.5535218695904356 7.479151098175885 3.989237653980723 0 0 0
12 1 8 0.027993 2.197071646669434 8.210863778065594 2.08954178783073 0 0 0
13 1 8 0.034858 3.8728159127428627 11.390588535953393 0.20749921845356142 0 0 0
14 1 1 0.157212 3.7870767413485407 12.810760596307647 2.3272374374363864 0 0 0
15 1 1 0.077882 2.606304190476634 11.856919705363467 4.383205028371925 0 0 0
16 2 9 -0.326615 3.385623136800835 6.4260989307762815 9.024507906676673 0 0 0
17 2 5 0.380568 3.171246581907645 7.14354222677564 10.191369902499614 0 0 0
18 2 7 -0.585364 2.7162006643761982 6.5496777608462455 11.308818547558046 0 0 0
19 2 10 0.384166 2.2190347309297445 5.296670815090266 11.24905459121704 0 0 0
20 2 5 -0.38538 2.4510272880932185 4.476687062018128 10.144413288085259 0 0 0
21 2 5 0.173788 3.0195613077907373 5.0749514769111155 8.982221607541014 0 0 0
22 2 4 0.6054 3.948073580925776 7.063191029055879 7.796261822825838 0 0 0
23 2 3 -0.479634 4.494464003542057 6.464792313480132 6.890698785235211 0 0 0
24 2 6 -0.779885 3.757660232106602 8.399047920688906 7.6185757407492245 0 0 0
25 2 2 0.357505 4.338035551725037 8.895976344203467 6.946760409082726 0 0 0
26 2 2 0.357505 3.200779094464126 8.932808198579316 8.293139842235204 0 0 0
27 2 8 0.027993 3.3045067313406675 8.183967144809905 10.243013791643728 0 0 0
28 2 8 0.034858 1.7153217857522 4.932288583491405 12.175672519094173 0 0 0
29 2 1 0.157212 1.9990963323702706 3.4324425218317987 10.150178435723456 0 0 0
30 2 1 0.077882 3.128607499626275 4.542572778103603 8.024714608168823 0 0 0
31 3 9 -0.326615 0.7592307300858597 3.969430291492565 3.6237519311708106 0 0 0
32 3 5 0.380568 18.934893735822826 5.203134946389512 3.893680126179186 -1 0 0
33 3 7 -0.585364 18.417298179580378 5.984464608158928 2.9469324809136634 -1 0 0
34 3 10 0.384166 18.53914620632577 5.6112792147852115 1.6525320042794727 -1 0 0
35 3 5 -0.38538 18.98006494030293 4.3284676685724115 1.2857490781376175 -1 0 0
36 3 5 0.173788 0.8035606893891777 3.558963432972524 2.2945743854500797 0 0 0
37 3 4 0.6054 1.3927506133200436 3.1240512518227868 4.656329477524067 0 0 0
38 3 3 -0.479634 1.8980167763726963 2.0404508437252753 4.432485100469153 0 0 0
39 3 6 -0.779885 1.3881701303922003 3.5732605902952277 5.945913678503415 0 0 0
40 3 2 0.357505 1.7000004916479605 2.9297874977875287 6.6740789483922525 0 0 0
41 3 2 0.357505 0.9563840475795098 4.4564361672387545 6.19788725590046 0 0 0
42 3 8 0.027993 18.70811833553657 5.5304967506464315 4.905259605095363 -1 0 0
43 3 8 0.034858 18.19618118562792 6.3524426677410295 0.9206687783772584 -1 0 0
44 3 1 0.157212 18.871943502277105 3.955241171431321 0.2883344835329045 -1 0 0
45 3 1 0.077882 1.1472239392058083 2.5632744839225787 2.0565271671036567 0 0 0
46 4 9 -0.326615 5.025413753487952 12.352976202712126 8.749376795595559 0 0 0
47 4 5 0.380568 5.5906782290730686 11.116019294257868 8.457065906261485 0 0 0
48 4 7 -0.585364 6.14152032676989 10.326983675184955 9.392376005315127 0 0 0
49 4 10 0.384166 5.998694450241591 10.743787064140939 10.686782964959889 0 0 0
50 4 5 -0.38538 5.505384034518244 11.977424756079381 11.070039790623538 0 0 0
51 4 5 0.173788 4.966494059195619 12.726039762092968 10.07096182930289 0 0 0
52 4 4 0.6054 4.405002022564478 13.23932396860741 7.746393616619445 0 0 0
53 4 3 -0.479634 3.887298918311144 14.314628001804573 8.002437435922953 0 0 0
54 4 6 -0.779885 4.379663976795208 12.78368016353869 6.476292580351915 0 0 0
55 4 2 0.357505 3.9106554016590134 13.372558199891277 5.804706929096875 0 0 0
56 4 2 0.357505 5.004429885540125 12.084828445948231 6.125126087823642 0 0 0
57 4 8 0.027993 5.801000135522547 10.805789841264977 7.422226885258458 0 0 0
58 4 8 0.034858 6.4047860917723005 10.101714177520645 11.464649049874705 0 0 0
59 4 1 0.157212 5.5547763355309066 12.347819989109066 12.071402633037897 0 0 0
60 4 1 0.077882 4.603670006537538 13.699661106062617 10.375634731970377 0 0 0
601 41 9 -0.326615 3.383404579731349 14.045863881750737 15.733166980074563 0 0 0
602 41 5 0.380568 3.5142716022169176 13.327507529493166 14.569104236797003 0 0 0
603 41 7 -0.585364 4.031082145199207 13.859806790004463 13.464226082764881 0 0 0
604 41 10 0.384166 4.388879331726224 15.151172910807297 13.520066795520597 0 0 0
605 41 5 -0.38538 4.309770613240587 15.925119032119696 14.667287863114831 0 0 0
606 41 5 0.173788 3.72251288250769 15.380404888584573 15.790364007959534 0 0 0
607 41 4 0.6054 2.9366524373501304 13.395648937147637 16.938943928562193 0 0 0
608 41 3 -0.479634 2.282015178604384 13.979175360195901 17.7632518520863 0 0 0
609 41 6 -0.779885 2.9286104375000988 12.040776964717416 17.043414919577923 0 0 0
610 41 2 0.357505 2.7898405003549565 11.667994352240324 17.96534500341223 0 0 0
611 41 2 0.357505 3.5501558869221355 11.504979754698073 16.454745708472977 0 0 0
612 41 8 0.027993 3.1697681292872533 12.29762236835101 14.480034403790912 0 0 0
613 41 8 0.034858 4.735388585334608 15.54121488730977 12.587431771393682 0 0 0
614 41 1 0.157212 4.631365352918832 16.958991358347923 14.67410789596911 0 0 0
615 41 1 0.077882 3.7100230820900726 15.960900207187942 16.69146504201512 0 0 0
616 42 9 -0.326615 4.34366544224145 10.48855199756763 21.362103962960806 0 0 0
617 42 5 0.380568 4.190966265980565 11.193466120241888 22.571472004003727 0 0 0
618 42 7 -0.585364 3.655127234017394 10.624265903133642 23.64982384208058 0 0 0
619 42 10 0.384166 3.2654675696905597 9.361186961721296 23.62688236810511 0 0 0
620 42 5 -0.38538 3.40140927226538 8.62251197403978 22.481899010151604 0 0 0
621 42 5 0.173788 3.9022388100370358 9.1731474432356 21.305110045598564 0 0 0
622 42 4 0.6054 4.956634607894701 11.103288656238496 20.180342531350725 0 0 0
623 42 3 -0.479634 5.418263017138477 10.49115682366325 19.2287105619333 0 0 0
624 42 6 -0.779885 4.764343412855434 12.44610627162616 20.156689747971964 0 0 0
625 42 2 0.357505 5.117527065408968 13.026478797801133 19.404142316396463 0 0 0
626 42 2 0.357505 4.183722916131203 12.849073629707501 20.892546542137197 0 0 0
627 42 8 0.027993 4.546492633872889 12.218460251739153 22.70756797665507 0 0 0
628 42 8 0.034858 3.007927961647548 8.899069835921495 24.589023435853345 0 0 0
629 42 1 0.157212 3.121041508168676 7.601689525864459 22.53133243933979 0 0 0
630 42 1 0.077882 4.032070470698944 8.579709845900602 20.429759674422524 0 0 0
631 43 9 -0.326615 1.7715499609886822 8.098741122656762 16.02030585561704 0 0 0
632 43 5 0.380568 19.892052127983497 9.315833545882706 16.294710198926886 -1 0 0
633 43 7 -0.585364 19.43022309159021 10.15208233158603 15.338357950166637 -1 0 0
634 43 10 0.384166 19.494913546819355 9.662568733676945 14.094123453825485 -1 0 0
635 43 5 -0.38538 20.026116192499284 8.443169100217487 13.696786541575594 -1 0 0
636 43 5 0.173788 1.765376055675507 7.665132151335278 14.704535102569412 0 0 0
637 43 4 0.6054 2.328998889767244 7.171828545926735 17.03482646702966 0 0 0
638 43 3 -0.479634 2.8740202104957664 6.122974198803899 16.794672284555865 0 0 0
639 43 6 -0.779885 2.3895649352436674 7.663451145501972 18.278764725082077 0 0 0
640 43 2 0.357505 2.6861998118787604 7.045144165843426 19.025833348762 0 0 0
641 43 2 0.357505 1.9605706147168243 8.559515051274463 18.49953212853263 0 0 0
642 43 8 0.027993 19.645803178990423 9.630340440309237 17.30905336112854 -1 0 0
643 43 8 0.034858 19.00887034362884 10.269777804250483 13.36062511202546 -1 0 0
644 43 1 0.157212 20.020108129120544 8.150447133723496 12.679332121115646 -1 0 0
645 43 1 0.077882 2.1456596791021596 6.68491412486121 14.432674527634656 0 0 0
646 44 9 -0.326615 5.954680450884955 16.42850948674689 21.10022394132179 0 0 0
647 44 5 0.380568 6.578535198291382 15.19966286942823 20.828684923329238 0 0 0
648 44 7 -0.585364 7.025362435450944 14.377999653759245 21.786321714787864 0 0 0
649 44 10 0.384166 7.077321500750702 14.819823976893932 23.046628058333507 0 0 0
650 44 5 -0.38538 6.491913890228041 16.031868521266546 23.467555021752844 0 0 0
651 44 5 0.173788 5.932831878609785 16.877246034491122 22.437145315520382 0 0 0
652 44 4 0.6054 5.357371731693476 17.305999682200447 20.046398203063497 0 0 0
653 44 3 -0.479634 4.828993207561155 18.36280930760167 20.3251994809353 0 0 0
654 44 6 -0.779885 5.3343163126847095 16.8046882775754 18.779413145917506 0 0 0
655 44 2 0.357505 4.880262836614683 17.328245874664496 18.047514988326707 0 0 0
656 44 2 0.357505 5.6602910339302035 15.870424616720506 18.622493655922195 0 0 0
657 44 8 0.027993 6.518861538846725 14.732281033721513 19.856464801407196 0 0 0
658 44 8 0.034858 7.431807406700949 14.10292038266585 23.72856114097916 0 0 0
659 44 1 0.157212 6.573433350642343 16.283118672191357 24.48334266910153 0 0 0
660 44 1 0.077882 5.542619480602261 17.885840638729544 22.684562577837717 0 0 0
301 21 9 -0.326615 3.4635718734528846 22.18301094547062 3.34438424757309 0 0 0
302 21 5 0.380568 3.5363525969314162 21.504360693903163 2.1278643548201894 0 0 0
303 21 7 -0.585364 4.08634985602727 22.087000658795198 1.0161131116161748 0 0 0
304 21 10 0.384166 4.530719435485543 23.3533509760804 1.1301397218684248 0 0 0
305 21 5 -0.38538 4.349811966331139 24.14952046769977 2.278472943267375 0 0 0
306 21 5 0.173788 3.831420034848014 23.52118626186579 3.4006656814980696 0 0 0
307 21 4 0.6054 2.8549488141817623 21.56845770851894 4.559627526335429 0 0 0
308 21 3 -0.479634 2.38753317342406 22.224160146901443 5.483361562330304 0 0 0
309 21 6 -0.779885 3.009698355982862 20.223213540137287 4.64500675945383 0 0 0
310 21 2 0.357505 2.4913337389959764 19.729767063567074 5.36160837914353 0 0 0
311 21 2 0.357505 3.6226745547416437 19.709272981106444 4.00697645360343 0 0 0
312 21 8 0.027993 3.2541277988270365 20.464189282549274 2.067008597612986 0 0 0
313 21 8 0.034858 4.906033233861864 23.760556752487286 0.1600487788085021 0 0 0
314 21 1 0.157212 4.638058696142005 25.16702873441721 2.326129177896745 0 0 0
315 21 1 0.077882 3.757870827286633 24.0525516706187 4.327270619796077 0 0 0
316 22 9 -0.326615 4.385257654571493 18.70765680644621 8.973216172419594 0 0 0
317 22 5 0.380568 4.241692514273476 19.401733357169903 10.179756468398084 0 0 0
318 22 7 -0.585364 3.747930897394929 18.83142780153675 11.286091258165204 0 0 0
319 22 10 0.384166 3.3582136113549317 17.561209542603102 11.234512263652505 0 0 0
320 22 5 -0.38538 3.4479832223677676 16.809771449404813 10.073063205338489 0 0 0
321 22 5 0.173788 4.007748750531233 17.365665230346245 8.930238824791362 0 0 0
322 22 4 0.6054 4.970070954792857 19.35882428679938 7.768008302945442 0 0 0
323 22 3 -0.479634 5.48706903977006 18.711889908697934 6.870977949412419 0 0 0
324 22 6 -0.779885 4.841153459777249 20.704596853293285 7.712145828233853 0 0 0
325 22 2 0.357505 5.171985182144668 21.234101188963724 6.910156462773466 0 0 0
326 22 2 0.357505 4.436292529011579 21.19594160683659 8.517084513542143 0 0 0
327 22 8 0.027993 4.662794642388876 20.394445547617593 10.29099147425959 0 0 0
328 22 8 0.034858 2.847909738255143 17.197044386589077 12.137234666713422 0 0 0
329 22 1 0.157212 3.121593144685461 15.767173795341755 10.091309765980679 0 0 0
330 22 1 0.077882 4.031996795776498 16.80814454755932 7.965099689490936 0 0 0
331 23 9 -0.326615 1.8619700328625814 16.295851702703864 3.624850049885428 0 0 0
332 23 5 0.380568 19.93341626970455 17.485188691903883 3.900794299054488 -1 0 0
333 23 7 -0.585364 19.511757626604904 18.358906734475617 2.966924722842659 -1 0 0
334 23 10 0.384166 19.526231406280832 17.901377540996886 1.6859132984948861 -1 0 0
335 23 5 -0.38538 20.078834901481606 16.638643750859174 1.3522297613987608 -1 0 0
336 23 5 0.173788 1.8766221502628644 15.825119656759957 2.3193754120290557 0 0 0
337 23 4 0.6054 2.4700472158782856 15.427332595367425 4.660670381203422 0 0 0
338 23 3 -0.479634 2.9648713707344574 14.330727584172564 4.387504932235803 0 0 0
339 23 6 -0.779885 2.423912308651699 15.905580272237216 5.948888312526461 0 0 0
340 23 2 0.357505 2.623519188633975 15.273260529217541 6.7275901081413965 0 0 0
341 23 2 0.357505 2.201953687457633 16.890229094937634 6.138896195768144 0 0 0
342 23 8 0.027993 19.68011627140597 17.723650495900312 4.934169560599227 -1 0 0
343 23 8 0.034858 19.142637846868542 18.56283409649094 0.927285532619288 -1 0 0
344 23 1 0.157212 1.47983056984371 16.404743192082176 0.30931387626195367 0 0 0
345 23 1 0.077882 2.502540479388135 14.99427783444486 2.030336402214972 0 0 0
346 24 9 -0.326615 6.065287405285158 24.668751738019168 8.704371281035602 0 0 0
347 24 5 0.380568 6.557659995648267 23.420271216451873 8.415437699423931 0 0 0
348 24 7 -0.585364 7.073622351320864 22.669320432261358 9.39865217924646 0 0 0
349 24 10 0.384166 7.048293685503312 23.0901621133294 10.691121605129705 0 0 0
350 24 5 -0.38538 6.522460429195253 24.29667406091662 11.092657582753487 0 0 0
351 24 5 0.173788 5.9746529479613715 25.04738447742512 10.068825244248295 0 0 0
352 24 4 0.6054 5.505619374118968 25.558947872167735 7.672720610925851 0 0 0
353 24 3 -0.479634 4.883487976228364 26.579666688320174 7.958741555937896 0 0 0
354 24 6 -0.779885 5.393096394669595 25.040051267844706 6.398095873723922 0 0 0
355 24 2 0.357505 5.031320516808105 25.632035712893092 5.648320334379819 0 0 0
356 24 2 0.357505 5.891772490794139 24.192013580906874 6.1380488414194465 0 0 0
357 24 8 0.027993 6.707636257262318 23.070930148078904 7.386530691153195 0 0 0
358 24 8 0.034858 7.72723723460436 22.54917517284067 11.35026522483083 0 0 0
359 24 1 0.157212 6.602938319756043 24.642472190898964 12.141757391441137 0 0 0
360 24 1 0.077882 5.580805086429676 26.024781797602234 10.380297059275396 0 0 0
901 61 9 -0.326615 4.310357569684246 26.29930256073292 15.723345136235073 0 0 0
902 61 5 0.380568 4.5135534181470875 25.587492224888535 14.526294119646952 0 0 0
903 61 7 -0.585364 5.052413431984233 26.147111158359316 13.458898953645308 0 0 0
904 61 10 0.384166 5.507049174672806 27.396815984871132 13.547429652503096 0 0 0
905 61 5 -0.38538 5.291391138482236 28.23517684838309 14.672292050198047 0 0 0
906 61 5 0.173788 4.677930453712195 27.648708006142233 15.795948125595624 0 0 0
907 61 4 0.6054 3.834290373293411 25.640362946228535 16.9775903656518 0 0 0
908 61 3 -0.479634 3.2982587352594877 26.23797800438654 17.88491882739842 0 0 0
909 61 6 -0.779885 3.938066351033619 24.297550516490475 17.092976156568092 0 0 0
910 61 2 0.357505 3.644043337069027 23.829564352634414 17.926010024751193 0 0 0
911 61 2 0.357505 4.395820080817113 23.75352776096865 16.381301240706698 0 0 0
912 61 8 0.027993 4.079554014619952 24.624692082243108 14.334809440517587 0 0 0
913 61 8 0.034858 5.947345636418641 27.772945824911048 12.603129150559933 0 0 0
914 61 1 0.157212 5.637861736862511 29.258257652703538 14.681428691097384 0 0 0
915 61 1 0.077882 4.451243717861766 28.251785383999998 16.689768286659056 0 0 0
916 62 9 -0.326615 5.3933275728264185 22.779643167104403 21.35196295715789 0 0 0
917 62 5 0.380568 5.267673669946126 23.46355476767063 22.577169370011188 0 0 0
918 62 7 -0.585364 4.73387387610987 22.91925436152975 23.66612092137542 0 0 0
919 62 10 0.384166 4.354348189029309 21.639055389606757 23.607508239038978 0 0 0
920 62 5 -0.38538 4.472200143317049 20.873243647198674 22.44885198758515 0 0 0
921 62 5 0.173788 5.019891737270121 21.418238259325655 21.295971327641215 0 0 0
922 62 4 0.6054 5.954622778655004 23.41631016058686 20.147028658491205 0 0 0
923 62 3 -0.479634 6.533136663418018 22.786973509184257 19.275592412779158 0 0 0
924 62 6 -0.779885 5.801575584468371 24.747900071220386 20.100834723668967 0 0 0
925 62 2 0.357505 6.235079313273918 25.25526953313051 19.349878256823683 0 0 0
926 62 2 0.357505 5.33695927888413 25.227818272385 20.877286662233296 0 0 0
927 62 8 0.027993 5.458262331404928 24.56200808110934 22.652896391425102 0 0 0
928 62 8 0.034858 4.018518607601095 21.236160342416788 24.561603836376566 0 0 0
929 62 1 0.157212 4.112438427094839 19.85658429424915 22.44506693347879 0 0 0
930 62 1 0.077882 5.171479702801724 20.82173691666626 20.409845482534823 0 0 0
931 63 9 -0.326615 2.8215258545772555 20.321424130833073 15.988577395055895 0 0 0
932 63 5 0.380568 20.92649895181617 21.54420270518277 16.269227285561538 -1 0 0
933 63 7 -0.585364 20.39902858815822 22.352975450773695 15.311126693967225 -1 0 0
934 63 10 0.384166 20.47489011580788 21.943310992890307 14.03488271967469 -1 0 0
935 63 5 -0.38538 21.02874780709401 20.706533692905424 13.681698568668759 -1 0 0
936 63 5 0.173788 2.851091513335915 19.874473597225954 14.659401045236535 0 0 0
937 63 4 0.6054 3.4144108049527575 19.46698483801574 17.03969335753745 0 0 0
938 63 3 -0.479634 4.006942937943733 18.46193486482585 16.746426948234575 0 0 0
939 63 6 -0.779885 3.445131750135884 19.923399215745835 18.29537343296763 0 0 0
940 63 2 0.357505 4.040226305916491 19.477563440306874 18.973081269708175 0 0 0
941 63 2 0.357505 2.902272495443535 20.738570432429015 18.535855166008574 0 0 0
942 63 8 0.027993 20.929335519729324 21.993674450634927 17.24386688750866 -1 0 0
943 63 8 0.034858 20.1927370787091 22.6675415890275 13.293170505166772 -1 0 0
944 63 1 0.157212 2.411565348866149 20.496986762849367 12.648913297549491 0 0 0
945 63 1 0.077882 3.4049286650035 19.031618541471147 14.333849814343816 0 0 0
946 64 9 -0.326615 7.039821897438166 28.745982389841693 21.090537750999637 0 0 0
947 64 5 0.380568 7.661674930434339 27.504570373459785 20.839893960847505 0 0 0
948 64 7 -0.585364 8.13620256539901 26.68967377717326 21.79741984337297 0 0 0
949 64 10 0.384166 8.077815534973094 27.071172792797558 23.092683134236864 0 0 0
950 64 5 -0.38538 7.515564361842897 28.323992099302913 23.417616578908106 0 0 0
951 64 5 0.173788 6.912525867936521 29.145593459956682 22.41890796448772 0 0 0
952 64 4 0.6054 6.417783104670956 29.609454391217838 20.06038020340034 0 0 0
953 64 3 -0.479634 5.929765438353572 30.69548409030966 20.288488942559773 0 0 0
954 64 6 -0.779885 6.347097388725814 29.123554574588752 18.81456568928239 0 0 0
955 64 2 0.357505 6.159268190537725 29.73201373233939 18.033651703952614 0 0 0
956 64 2 0.357505 6.7043969529906455 28.19659884581794 18.647586132477276 0 0 0
957 64 8 0.027993 7.726323643775638 27.100473820164535 19.829500970754058 0 0 0
958 64 8 0.034858 8.342097407596647 26.32732261730921 23.83531867513959 0 0 0
959 64 1 0.157212 7.462553800464647 28.562477567128973 24.439164418523074 0 0 0
960 64 1 0.077882 6.490703544547025 30.13280555871324 22.637883866975596 0 0 0
61 5 9 -0.326615 6.138286572345727 9.949467958843517 3.384405328307726 0 0 0
62 5 5 0.380568 6.316032658680437 9.21926080672764 2.2005001548155843 0 0 0
63 5 7 -0.585364 6.799996201659508 9.77581247460165 1.0649267502250928 0 0 0
64 5 10 0.384166 7.1522488395425805 11.085029187309145 1.0928591493210635 0 0 0
65 5 5 -0.38538 7.08298792825453 11.866870886919468 2.2956208496362764 0 0 0
66 5 5 0.173788 6.509111959488889 11.272981135263016 3.4406077630939556 0 0 0
67 5 4 0.6054 5.659701466823071 9.33109751906852 4.596967509242316 0 0 0
68 5 3 -0.479634 5.072085847019635 9.922516823966198 5.448048919917664 0 0 0
69 5 6 -0.779885 5.77097041279203 8.01807969628954 4.698302869383542 0 0 0
70 5 2 0.357505 5.357920979175915 7.509571458495863 5.46476231013075 0 0 0
71 5 2 0.357505 6.262210277439685 7.483710495106231 3.991099194497625 0 0 0
72 5 8 0.027993 5.908486848214723 8.223151369173454 2.07063509025612 0 0 0
73 5 8 0.034858 7.498893258515526 11.445362675699487 0.1125569747240907 0 0 0
74 5 1 0.157212 7.453449126886242 12.86746208639195 2.372498593711229 0 0 0
75 5 1 0.077882 6.311415413476832 11.829140032027379 4.333352824586338 0 0 0
76 6 9 -0.326615 7.114885895276634 6.433028456210711 8.969298455228481 0 0 0
77 6 5 0.380568 6.9596315105537965 7.133556230559622 10.164024779785763 0 0 0
78 6 7 -0.585364 6.485387794346874 6.550474220924444 11.30332033859697 0 0 0
79 6 10 0.384166 6.091498034158502 5.259491685346249 11.268737701606078 0 0 0
80 6 5 -0.38538 6.237238952345054 4.517481062662556 10.07253078277845 0 0 0
81 6 5 0.173788 6.79253248163819 5.096269868107782 8.943641491235313 0 0 0
82 6 4 0.6054 7.644287698218064 7.074117550894094 7.771480664747072 0 0 0
83 6 3 -0.479634 8.201146439434527 6.427695761268246 6.891421541658405 0 0 0
84 6 6 -0.779885 7.6264784328741655 8.444643520314168 7.735548077992875 0 0 0
85 6 2 0.357505 8.045486185532909 8.898785903395423 6.939034342203753 0 0 0
86 6 2 0.357505 7.098450496899637 9.037315954884567 8.371100347584864 0 0 0
87 6 8 0.027993 7.277248827478592 8.145757949815298 10.266275846393599 0 0 0
88 6 8 0.034858 5.674017247259199 4.82884885780223 12.221221453974819 0 0 0
89 6 1 0.157212 5.946660701236551 3.518275525003583 10.020774800707574 0 0 0
90 6 1 0.077882 6.933620339341826 4.53941621810881 8.057283959597363 0 0 0
91 7 9 -0.326615 4.487890310619299 3.9097550222776034 3.595768855351055 0 0 0
92 7 5 0.380568 3.9172806734450294 5.163420896860195 3.889080111845014 0 0 0
93 7 7 -0.585364 3.375891513629914 5.995276977749149 2.995115857381424 0 0 0
94 7 10 0.384166 3.5298474691797495 5.673969124047456 1.7152370632420666 0 0 0
95 7 5 -0.38538 4.040964964691937 4.413327795369749 1.3113017268572786 0 0 0
96 7 5 0.173788 4.556184589308726 3.502399744884254 2.2542332406488113 0 0 0
97 7 4 0.6054 5.189327305458502 3.1391525965854816 4.70590243554369 0 0 0
98 7 3 -0.479634 5.588538227293141 2.000204203947011 4.488043794376406 0 0 0
99 7 6 -0.779885 5.207166937496408 3.6985498574434477 5.974708022981808 0 0 0
100 7 2 0.357505 5.457229957012253 3.1078324916176907 6.772207946422385 0 0 0
101 7 2 0.357505 4.781626392277074 4.61493215448252 6.154672573065838 0 0 0
102 7 8 0.027993 3.990902457031952 5.60910458258359 4.869299953252098 0 0 0
103 7 8 0.034858 3.0948077426711693 6.39899085786814 1.0285780796236172 0 0 0
104 7 1 0.157212 4.089987440622669 4.180463840834521 0.2794655700801304 0 0 0
105 7 1 0.077882 4.955205670145995 2.5228059001180445 1.9581046523809396 0 0 0
106 8 9 -0.326615 8.769420692726934 12.420468003692545 8.736899717942203 0 0 0
107 8 5 0.380568 9.38885204485512 11.205678292129782 8.474953703647206 0 0 0
108 8 7 -0.585364 9.817847145755728 10.302129883699823 9.412340466540131 0 0 0
109 8 10 0.384166 9.82121227113224 10.711700025700434 10.724304188850981 0 0 0
110 8 5 -0.38538 9.255527690090588 11.966948719560882 11.051591832458875 0 0 0
111 8 5 0.173788 8.705077581027963 12.813496790992463 10.06516187955326 0 0 0
112 8 4 0.6054 8.18375800955559 13.294632261851078 7.667428220451067 0 0 0
113 8 3 -0.479634 7.600628594523428 14.339126836319034 7.9499143413102935 0 0 0
114 8 6 -0.779885 8.110324484123895 12.814464499918094 6.381755379025795 0 0 0
115 8 2 0.357505 7.536595432913737 13.262368813205507 5.664857967647022 0 0 0
116 8 2 0.357505 8.421713493963418 11.86414106595215 6.159582965188512 0 0 0
117 8 8 0.027993 9.408644987252314 10.880037380209826 7.451940868433795 0 0 0
118 8 8 0.034858 10.080872901289894 9.96508199380012 11.531527942033273 0 0 0
119 8 1 0.157212 9.288016140706658 12.266673078137002 12.055118139114834 0 0 0
120 8 1 0.077882 8.121172257482534 13.693355620674172 10.336884223465846 0 0 0
661 45 9 -0.326615 7.083876368570167 14.040297015555396 15.778261789600055 0 0 0
662 45 5 0.380568 7.267585740143371 13.325268831967799 14.596993570188044 0 0 0
663 45 7 -0.585364 7.774904844177809 13.87347588449647 13.509512185794831 0 0 0
664 45 10 0.384166 8.206641668036522 15.138344669267108 13.526134156463351 0 0 0
665 45 5 -0.38538 8.097530488881631 15.930803983301448 14.68509020853424 0 0 0
666 45 5 0.173788 7.513951156492063 15.383549791190259 15.840610471593989 0 0 0
667 45 4 0.6054 6.568126074968977 13.340866176677178 16.93896242032437 0 0 0
668 45 3 -0.479634 6.057463969099915 13.980647523212788 17.831589007350985 0 0 0
669 45 6 -0.779885 6.742068714484276 12.00794874261322 17.014338835019718 0 0 0
670 45 2 0.357505 6.441043240039328 11.572744208560088 17.871027041866142 0 0 0
671 45 2 0.357505 7.179884332474076 11.43882427598832 16.295962335977364 0 0 0
672 45 8 0.027993 7.07837538071272 12.29304087366056 14.521096460206946 0 0 0
673 45 8 0.034858 8.663256860370272 15.467224304300832 12.589129810689592 0 0 0
674 45 1 0.157212 8.334884375980776 17.00883812893831 14.635378933821553 0 0 0
675 45 1 0.077882 7.373546200228639 15.961462764322 16.75511890913053 0 0 0
676 46 9 -0.326615 8.152779515828755 10.502334961795567 21.346566199659172 0 0 0
677 46 5 0.380568 7.98408633123946 11.212258559480942 22.51368822715353 0 0 0
678 46 7 -0.585364 7.409790827671612 10.691435754695142 23.640108914202607 0 0 0
679 46 10 0.384166 7.132234457927217 9.33934288669348 23.621621306830587 0 0 0
680 46 5 -0.38538 7.230776354176337 8.538495698503398 22.452750224539603 0 0 0
681 46 5 0.173788 7.736271966010705 9.178438892318745 21.300222415536787 0 0 0
682 46 4 0.6054 8.67771565116752 11.12827953449819 20.161598272506556 0 0 0
683 46 3 -0.479634 9.246085831704534 10.550356694671216 19.275107554788516 0 0 0
684 46 6 -0.779885 8.52350874372321 12.443128146170462 20.064108135582842 0 0 0
685 46 2 0.357505 9.10124154438746 12.881883905952137 19.35703396403859 0 0 0
686 46 2 0.357505 8.136813650095203 13.009860270155519 20.8174566567252 0 0 0
687 46 8 0.027993 8.33819523120785 12.231686151842116 22.586772667429685 0 0 0
688 46 8 0.034858 6.763690494557869 8.929678989755804 24.556724343057667 0 0 0
689 46 1 0.157212 6.855997143614711 7.4981180935981175 22.435672545988346 0 0 0
690 46 1 0.077882 7.7953238199600134 8.65821279063928 20.35294776255885 0 0 0
691 47 9 -0.326615 5.488568424130018 8.055861245511418 16.01429027327896 0 0 0
692 47 5 0.380568 4.840394237202222 9.299493262528925 16.270639214029405 0 0 0
693 47 7 -0.585364 4.364799829239529 10.092295321975563 15.2875274742072 0 0 0
694 47 10 0.384166 4.442694331614646 9.634227640991284 14.031431881080284 0 0 0
695 47 5 -0.38538 5.076677419987263 8.412991416199374 13.675633497067002 0 0 0
696 47 5 0.173788 5.573765312017036 7.583183152722967 14.69910822386306 0 0 0
697 47 4 0.6054 6.096288213875747 7.1877507105503495 17.073355251376586 0 0 0
698 47 3 -0.479634 6.6137596646865005 6.10471241998685 16.823418581146974 0 0 0
699 47 6 -0.779885 6.0916527774046765 7.675893722210573 18.36241947913235 0 0 0
700 47 2 0.357505 6.6214992633532255 7.21739818365513 19.08999752950706 0 0 0
701 47 2 0.357505 5.707545878370722 8.588110974616734 18.56484574195784 0 0 0
702 47 8 0.027993 4.721973583875096 9.715499564479043 17.270986946379345 0 0 0
703 47 8 0.034858 3.954586389055514 10.267187132502322 13.327362024715464 0 0 0
704 47 1 0.157212 5.059980587746761 8.072281154952226 12.662376162702499 0 0 0
705 47 1 0.077882 5.946795058804586 6.618343817452292 14.423869958601019 0 0 0
706 48 9 -0.326615 9.753309978271368 16.456853427383695 21.10572918571749 0 0 0
707 48 5 0.380568 10.340199570850194 15.211614643842106 20.849950213491375 0 0 0
708 48 7 -0.585364 10.831734140117263 14.396902055095861 21.76414181591099 0 0 0
709 48 10 0.384166 10.75959926425916 14.843447764430692 23.015698794805328 0 0 0
710 48 5 -0.38538 10.19268458535015 16.06350507022197 23.375116060919428 0 0 0
711 48 5 0.173788 9.730845687742274 16.921406969376015 22.39587604986824 0 0 0
712 48 4 0.6054 9.165618587801728 17.30054157747253 20.084021180082797 0 0 0
713 48 3 -0.479634 8.628548992899098 18.360468635359503 20.330245551920353 0 0 0
714 48 6 -0.779885 9.108535791866151 16.81932301829153 18.83283895423491 0 0 0
715 48 2 0.357505 8.719283634592513 17.40875252161053 18.111682227435296 0 0 0
716 48 2 0.357505 9.577758997020974 15.981439882623388 18.54425974863213 0 0 0
717 48 8 0.027993 10.486086426172626 14.82455056669115 19.841199538366606 0 0 0
718 48 8 0.034858 11.390038735623904 14.300667110303712 23.70800913359752 0 0 0
719 48 1 0.157212 10.237596827510313 16.386301902112706 24.38142213882793 0 0 0
720 48 1 0.077882 9.363152623559028 17.893975846742972 22.66224506683695 0 0 0
361 25 9 -0.326615 7.20986113421609 22.216218467900866 3.3592372005252473 0 0 0
362 25 5 0.380568 7.262580397261053 21.506663909750003 2.142693784129195 0 0 0
363 25 7 -0.585364 7.756734758500863 22.11655853894588 1.0665835500182979 0 0 0
364 25 10 0.384166 8.231782158509823 23.35787233285787 1.1516036599679558 0 0 0
365 25 5 -0.38538 8.10095029435947 24.150431633009177 2.275126446764775 0 0 0
366 25 5 0.173788 7.561543603597273 23.57915983348938 3.4331891860277075 0 0 0
367 25 4 0.6054 6.604096372968858 21.592339851808564 4.553814672426727 0 0 0
368 25 3 -0.479634 6.088907796242479 22.234347319869265 5.466061655011643 0 0 0
369 25 6 -0.779885 6.800843970036852 20.24500975855819 4.6642617571747325 0 0 0
370 25 2 0.357505 6.376919002508217 19.72894914213048 5.42844353678828 0 0 0
371 25 2 0.357505 7.2134029575694445 19.704374473113536 3.908303635074399 0 0 0
372 25 8 0.027993 6.9182294698234506 20.480993513801742 2.03745294159601 0 0 0
373 25 8 0.034858 8.616310094084254 23.73814829814166 0.24822194996734173 0 0 0
374 25 1 0.157212 8.482910840648215 25.197033135360684 2.2114777506947765 0 0 0
375 25 1 0.077882 7.446544127580356 24.109130683515744 4.3520007124888345 0 0 0