ITEM: TIMESTEP
10
ITEM: NUMBER OF ATOMS
1200
ITEM: BOX BOUNDS xy xz yz pp pp pp
0.0000000000000000e+00 2.2792614728000000e+01 2.0623073912000001e+00
0.0000000000000000e+00 3.2712435729600003e+01 1.9678073368000000e+00
0.0000000000000000e+00 2.4740606862000000e+01 8.1530720191999997e+00
ITEM: ATOMS id mol element x y z vx vy vz
1 1 Ca1 2.37816 9.96831 3.3589 -0.00212568 0.00525289 -0.00438587
2 1 Ca 2.52432 9.2466 2.17401 0.00105151 0.00196773 -0.000422933
3 1 Nb 3.05155 9.78663 1.07209 0.00144735 -0.00020035 0.00196324
4 1 Ca2 3.4217 11.0604 1.1301 -0.0100689 0.000416728 -0.000725393
5 1 Ca 3.31198 11.8389 2.31125 -0.00111929 -0.000607632 0.00386999
6 1 Ca 2.75238 11.2935 3.43852 -0.00426285 0.00313671 0.00324509
7 1 C 1.83696 9.32479 4.59726 0.0012344 0.00404831 -0.000943841
8 1 O 1.29341 9.96244 5.47057 -0.00303294 0.00567728 -0.00228027
9 1 N 1.97452 7.9654 4.66289 0.000581205 0.00324693 -0.00344336
10 1 Hn 1.68793 7.54168 5.5406 0.0196033 0.00366459 0.00802749
11 1 Hn 2.49106 7.49999 3.91777 0.00973007 0.00312509 0.00912499
12 1 H4 2.19151 8.23272 2.10216 -0.00194105 -0.00686596 -0.000253622
13 1 H4 3.89551 11.4017 0.227455 -0.00335828 -0.0180194 -0.0107233
14 1 Ha 3.74325 12.8382 2.255 0.0204748 -0.00414135 -0.00266002
15 1 Ha 2.59923 11.8329 4.38165 -0.00802804 -0.00675168 0.00217997
16 2 Ca1 3.38391 6.41431 9.00649 6.25274e-05 0.000720592 0.00414226
17 2 Ca 3.21377 7.12182 10.1946 -0.00751852 0.00426883 -0.000108563
18 2 Nb 2.72733 6.56279 11.305 0.000158507 -0.00226759 -2.23938e-06
19 2 Ca2 2.26354 5.29569 11.2398 -0.00924094 -0.000210639 0.00080474
20 2 Ca 2.44748 4.48487 10.1204 0.00173346 -0.00173503 0.00713016
21 2 Ca 3.01288 5.08546 8.94477 0.00217766 0.00135177 0.00376121
22 2 C 3.93679 7.05626 7.79298 0.000993147 0.00148614 0.00324855
23 2 O 4.47744 6.43339 6.88277 0.00327635 0.00443559 -0.000873497
24 2 N 3.7808 8.39757 7.66086 -0.0038913 -0.00116584 -0.00800776
25 2 Hn 4.23477 8.90355 6.91863 0.0238167 0.0124754 0.00300986
26 2 Hn 3.29014 8.88672 8.37059 -0.0167782 0.00988406 -0.0106746
27 2 H4 3.45024 8.22414 10.2373 -0.0347035 -0.00547925 -0.00700423
28 2 H4 1.80223 4.8761 12.0953 -0.0170038 0.00493158 0.0112075
29 2 Ha 2.06738 3.54702 10.132 -0.0290508 -0.0353116 0.0118386
30 2 Ha 3.1254 4.54117 8.03138 0.00287737 0.00469617 -0.00848869
31 3 Ca1 0.763874 3.97017 3.62474 -0.00161709 -0.00161656 -0.00117534
32 3 Ca 18.9395 5.20971 3.90104 0.000917355 -0.00140691 -0.00218233
33 3 Nb 18.4217 6.00769 2.96158 -0.00167756 -0.00420607 0.000274733
34 3 Ca2 18.5175 5.61077 1.67214 0.00372095 0.00087244 -0.00383913
35 3 Ca 19.0267 4.35039 1.30921 -0.0072454 -0.00580904 -0.00456808
36 3 Ca 0.811134 3.55915 2.31645 -0.000346606 0.00273618 -0.000616758
37 3 C 1.3862 3.11676 4.66043 0.00161317 0.00123654 -0.00289672
38 3 O 1.89307 2.04371 4.42406 0.000780364 -0.000531278 0.00169795
39 3 N 1.39601 3.58935 5.9442 -0.00101412 -0.00262389 -0.00114261
40 3 Hn 1.76515 3.03576 6.68738 -0.0125338 -0.0144329 0.0165269
41 3 Hn 0.981524 4.47991 6.20692 -0.000118119 -0.01169 0.0105034
42 3 H4 18.7417 5.58612 4.88581 -0.0182071 0.00149318 -0.000524479
43 3 H4 18.1679 6.29601 0.910999 0.0117691 0.0124887 0.00148822
44 3 Ha 18.976 3.9967 0.269701 -0.0239125 -0.0136729 -0.0035263
45 3 Ha 1.18889 2.57426 2.04686 -0.0142179 -0.000999969 -0.000549951
46 4 Ca1 5.00792 12.3721 8.73118 0.00301801 -0.00195596 1.6023e-05
47 4 Ca 5.5875 11.1342 8.46321 -0.00175841 -0.00164878 0.00139288
48 4 Nb 6.12344 10.3226 9.38646 0.00495564 -0.0013196 -0.00443329
49 4 Ca2 6.00872 10.7592 10.6953 -0.00374537 0.000402905 0.00185
50 4 Ca 5.48277 11.9876 11.041 0.00234859 0.0010194 0.00175471
51 4 Ca 4.96719 12.7588 10.0768 0.00180445 -0.0114166 0.00244834
52 4 C 4.3974 13.2375 7.72192 0.00170494 -0.000912018 0.00597146
53 4 O 3.88082 14.3168 7.97317 0.000829276 0.00089954 0.00494962
54 4 N 4.37228 12.7644 6.44439 0.00150485 0.001753 0.0051821
55 4 Hn 3.89741 13.36 5.77013 -0.00329527 0.00740482 0.00877139
56 4 Hn 4.91356 11.9026 6.17677 0.0148137 0.0409973 -0.00851506
57 4 H4 5.76729 10.7851 7.49593 0.015885 -0.00516595 -0.0128334
58 4 H4 6.40317 10.1189 11.4845 -0.00481456 0.00329182 8.32218e-05
59 4 Ha 5.49612 12.3364 12.0794 0.0112701 0.00781878 -0.000973
60 4 Ha 4.57171 13.7319 10.3282 0.0115529 -0.00742418 0.00692111
601 41 Ca1 3.36586 14.0072 15.7475 0.000733942 0.000370752 -0.00174155
602 41 Ca 3.51038 13.3308 14.5595 0.00118859 0.00203582 0.00280979
603 41 Nb 4.03163 13.8639 13.448 0.000538491 -7.69789e-05 0.0033246
604 41 Ca2 4.41859 15.1294 13.5106 -0.00581272 0.00119241 7.6784e-05
605 41 Ca 4.30391 15.9194 14.6783 7.71733e-05 -0.000398485 0.00325267
606 41 Ca 3.74135 15.3763 15.7851 -0.00297898 0.00339618 -0.00170105
607 41 C 2.87942 13.4109 16.9392 0.0137739 0.00374443 -0.0045492
608 41 O 2.28416 13.9975 17.816 -0.000973258 -0.00401711 -0.00869368
609 41 N 2.93753 12.0346 17.0474 -0.00328469 0.000337027 -0.000966189
610 41 Hn 2.71082 11.5717 17.9265 0.0238627 0.00316354 0.0145602
611 41 Hn 3.49558 11.5139 16.3558 0.00913495 -0.00156573 0.0268764
612 41 H4 3.16341 12.3122 14.49 -0.0022645 -0.000377912 0.0029098
613 41 H4 4.84534 15.6103 12.5975 -0.0229503 -0.00745657 0.00683663
614 41 Ha 4.62171 16.9505 14.6558 0.00138278 0.00780486 -0.000989189
615 41 Ha 3.69755 15.9808 16.7038 0.0122443 0.00200474 -0.00857587
616 42 Ca1 4.35515 10.4923 21.3701 -0.00273438 0.000176952 0.00127896
617 42 Ca 4.21843 11.1916 22.5552 -0.00379842 5.97777e-05 -0.00029545
618 42 Nb 3.68497 10.6343 23.6649 -0.00539786 -0.00289628 -0.00308592
619 42 Ca2 3.27776 9.36597 23.6076 -0.00254462 -0.00152296 0.00164743
620 42 Ca 3.42318 8.61821 22.473 -0.00263985 0.00459389 0.00339097
621 42 Ca 3.94894 9.15933 21.3074 -0.00844045 0.00148697 -0.00150898
622 42 C 4.9387 11.1122 20.1549 0.00432985 -0.00276594 0.00324969
623 42 O 5.43365 10.4922 19.2468 -0.00311879 -0.000503301 -0.00350839
624 42 N 4.77549 12.4588 20.1008 -0.0021294 -0.00422746 0.0105134
625 42 Hn 5.09432 13.0216 19.349 -0.000364515 0.0246581 0.00736907
626 42 Hn 4.25839 12.9283 20.8377 -0.0109881 -0.0118268 0.00161076
627 42 H4 4.53986 12.2101 22.7202 -0.00209143 0.00355246 0.0117734
628 42 H4 2.93042 8.89084 24.5096 0.0208278 -0.0065311 0.0120362
629 42 Ha 3.10376 7.56332 22.4903 0.00171268 0.00798243 0.0110299
630 42 Ha 4.08404 8.54446 20.3886 -0.00695794 0.0051747 0.0115111
631 43 Ca1 1.77538 8.05407 16.0101 0.00310366 0.00246633 0.0018171
632 43 Ca 19.901 9.31034 16.2852 -0.00305985 0.00288779 0.000952707
633 43 Nb 19.4184 10.1317 15.3355 0.00144538 0.00640743 0.00161675
634 43 Ca2 19.5016 9.65109 14.0727 0.00160619 -0.00378286 0.00308546
635 43 Ca 20.0278 8.45943 13.7 -0.00158132 -0.000691571 -0.000782789
636 43 Ca 1.77824 7.64823 14.6951 -0.00383514 0.00621828 0.00273697
637 43 C 2.33847 7.19862 17.0416 -0.00451733 -0.000174215 -0.00115606
638 43 O 2.87819 6.1158 16.7888 0.000437634 -0.000513821 0.000693674
639 43 N 2.38767 7.67111 18.2968 0.00187164 -0.00316524 -0.00455258
640 43 Hn 2.76817 7.09499 19.0533 -0.0180962 -0.0020327 0.00119926
641 43 Hn 1.96687 8.55272 18.4845 -0.00521628 0.00283774 -0.000308199
642 43 H4 19.7411 9.62235 17.2897 -0.0196108 -0.000330264 0.00758351
643 43 H4 19.0326 10.3174 13.3274 -0.0061746 -0.0119603 0.0192848
644 43 Ha 20.0833 8.10433 12.648 -0.00119432 0.00080207 0.00693061
645 43 Ha 2.18486 6.68073 14.4492 -0.0103734 0.00104161 0.00118957
646 44 Ca1 5.96572 16.4438 21.0987 -0.00309994 -0.00263162 -0.00149561
647 44 Ca 6.58281 15.2183 20.8232 0.000335417 -0.000502277 -0.000141314
648 44 Nb 7.06105 14.3875 21.784 -0.00608876 -0.00395893 -1.38714e-05
649 44 Ca2 7.03772 14.8396 23.0541 0.00768352 -0.00075365 0.00115848
650 44 Ca 6.46962 16.0434 23.4304 0.00270708 -0.0021192 0.00685527
651 44 Ca 5.9343 16.8894 22.4383 -0.000767957 -0.00182277 0.000883358
652 44 C 5.37531 17.2982 20.0481 -0.00074185 -0.00286789 -0.00275065
653 44 O 4.8443 18.3873 20.3291 -0.00377432 -0.00154568 0.000733643
654 44 N 5.34387 16.8278 18.7963 -0.00170336 -0.00313084 -0.00107407
655 44 Hn 4.89274 17.323 18.0256 -0.00196786 -0.012661 -0.00850266
656 44 Hn 5.72653 15.8709 18.6037 -0.0208106 0.0175217 0.00636463
657 44 H4 6.6011 14.7753 19.8687 -0.0188116 -0.0230396 -0.00427923
658 44 H4 7.43447 14.0674 23.7892 -0.00481616 -0.00186422 -0.0279168
659 44 Ha 6.53271 16.2914 24.5304 0.0192963 -0.0184707 -0.00224995
660 44 Ha 5.52415 17.8561 22.5885 0.000130296 0.0163577 -0.00689585
301 21 Ca1 3.44082 22.2169 3.3673 0.00567541 -0.00290773 -0.00379109
302 21 Ca 3.54086 21.5079 2.15347 -0.00242974 -0.00304216 -0.00502414
303 21 Nb 4.08533 22.0841 1.03581 0.00176548 0.00344343 -0.00595234
304 21 Ca2 4.51161 23.3424 1.13615 0.00359979 0.000759409 0.000649264
305 21 Ca 4.34654 24.1306 2.28857 -0.000456741 0.00351988 0.000114518
306 21 Ca 3.81221 23.541 3.40893 0.00321548 -0.00416683 -0.00343052
307 21 C 2.85601 21.5672 4.5845 -0.0015797 -0.00323358 -0.00332923
308 21 O 2.35688 22.2268 5.48738 0.00516055 0.00134057 0.00119959
309 21 N 3.0089 20.236 4.65809 0.000380541 -0.000133601 -0.00290479
310 21 Hn 2.57063 19.7634 5.44543 -0.0161933 -0.0044691 -0.0155172
311 21 Hn 3.53048 19.737 3.97835 0.0232526 -0.0128102 0.00222163
312 21 H4 3.22351 20.4513 2.18245 0.00402922 -0.00298076 0.0082538
313 21 H4 4.89255 23.7165 0.231361 -0.00438508 -0.00467004 -0.0214303
314 21 Ha 4.66209 25.2009 2.33247 -0.00674383 -0.00327652 0.00538933
315 21 Ha 3.71566 24.0961 4.35493 0.0089385 -0.0149304 -0.00666506
316 22 Ca1 4.39368 18.6878 8.99949 -0.00403691 0.000113443 0.000121771
317 22 Ca 4.26251 19.3976 10.1801 -0.00389157 0.00107207 -0.0020822
318 22 Nb 3.75045 18.8406 11.3004 -0.000862879 -0.00230011 -0.00192688
319 22 Ca2 3.34779 17.563 11.2321 0.00273069 -0.00246611 -0.000209664
320 22 Ca 3.46672 16.806 10.0713 -0.00260308 0.00369825 -0.00249506
321 22 Ca 4.02712 17.3602 8.93478 -0.0019943 0.00206616 0.000841577
322 22 C 4.97586 19.3551 7.75473 0.0012136 0.00471476 -0.00234025
323 22 O 5.48974 18.7004 6.88428 -0.000891815 0.00107576 -0.00183099
324 22 N 4.83098 20.6818 7.70513 0.00166024 0.000704969 0.00112311
325 22 Hn 5.16257 21.1966 6.90449 -0.00276734 0.01385 0.00444504
326 22 Hn 4.42281 21.1682 8.45057 0.00256543 0.0130398 0.0195071
327 22 H4 4.65184 20.4134 10.2838 0.00774934 -0.00326302 0.00121968
328 22 H4 2.85555 17.1961 12.1165 -0.00602844 0.0110668 0.00473476
329 22 Ha 3.16098 15.7906 10.1335 -0.00529966 -0.0113028 0.00877983
330 22 Ha 4.06696 16.8136 8.04983 -0.0146264 -0.0042482 -0.0199958
331 23 Ca1 1.82036 16.289 3.62112 0.00540744 0.00529659 -0.00150275
332 23 Ca 19.9585 17.4777 3.9048 -0.00247359 -0.00248233 -0.00156542
333 23 Nb 19.4815 18.3382 2.97169 0.0052589 0.0068954 0.00249721
334 23 Ca2 19.5323 17.8838 1.67506 -0.0012338 0.00160263 -0.00253915
335 23 Ca 20.0813 16.6457 1.34128 -0.000822175 -0.00234758 0.00410309
336 23 Ca 1.85378 15.8189 2.33035 0.00296022 -0.000425396 0.00202558
337 23 C 2.43377 15.4114 4.67456 0.00593603 0.00430757 -0.000998447
338 23 O 2.94217 14.3197 4.40092 0.00479206 -0.000422161 -0.00347294
339 23 N 2.42627 15.8943 5.9482 -0.000305721 0.00159362 -0.0009829
340 23 Hn 2.75406 15.3096 6.68604 -0.0240549 -0.0111466 0.0207179
341 23 Hn 2.1192 16.8151 6.12939 0.0167895 0.0238933 0.00328341
342 23 H4 19.7627 17.7946 4.90497 -0.0225238 -0.0118994 0.00549934
343 23 H4 19.1147 18.5669 0.905359 0.00189759 -0.00131017 0.00997042
344 23 Ha 20.199 16.3806 0.310292 0.018804 0.00498361 -0.00994932
345 23 Ha 2.39585 14.9306 1.97923 0.0246702 0.0163538 -0.00898349
346 24 Ca1 6.04944 24.645 8.68954 0.00465202 -0.000715869 -0.00725377
347 24 Ca 6.5946 23.4264 8.44022 -0.0078997 0.00126639 -0.00310986
348 24 Nb 7.10841 22.6364 9.40955 -0.00587307 0.00605775 -0.00157041
349 24 Ca2 7.04688 23.0547 10.6785 -0.00220733 0.00627114 0.000454723
350 24 Ca 6.51772 24.2745 11.0745 0.00194605 0.00340183 0.00428323
351 24 Ca 5.9777 25.0772 10.0662 -0.00130238 -0.00574098 0.00136949
352 24 C 5.46819 25.5325 7.71223 0.0102539 0.00292577 0.000652268
353 24 O 4.89388 26.5916 7.95423 -0.00324114 -0.000450637 0.00049179
354 24 N 5.39228 25.0346 6.40591 -0.00115834 5.09033e-05 -0.00230571
355 24 Hn 5.00555 25.5647 5.65667 0.00433792 0.00669817 -0.0244441
356 24 Hn 5.85051 24.1583 6.18055 0.00709993 0.0111641 -0.0116722
357 24 H4 6.68944 23.1304 7.46351 -0.00402525 -0.0011096 -0.0253652
358 24 H4 7.5908 22.5034 11.4393 0.0321519 0.021251 -0.00993716
359 24 Ha 6.50704 24.6215 12.0637 0.00997032 0.0162628 0.0266758
360 24 Ha 5.59665 26.0096 10.4265 0.00331814 0.00443992 0.02005
901 61 Ca1 4.35565 26.2875 15.7409 -0.00974267 -0.000889468 -0.0028826
902 61 Ca 4.53558 25.6019 14.5362 -0.00133924 -0.000946232 -0.0025448
903 61 Nb 5.05188 26.1369 13.4467 -0.00122136 -0.000106081 0.00288592
904 61 Ca2 5.49144 27.4113 13.5294 0.00288218 -0.00194259 0.00506078
905 61 Ca 5.31893 28.2113 14.6494 -0.00448277 0.00356559 0.000696111
906 61 Ca 4.74641 27.6553 15.8039 -0.00968679 0.00170527 -0.000766338
907 61 C 3.85125 25.6598 16.9629 -0.000405809 -0.00165998 0.000358232
908 61 O 3.30964 26.2729 17.8685 -0.00242493 -0.00569678 0.00390623
909 61 N 3.9651 24.3074 17.0687 -0.00534726 -0.00249013 0.00573211
910 61 Hn 3.63029 23.8125 17.9305 0.00838201 0.00264544 -0.00780315
911 61 Hn 4.438 23.8171 16.2982 -0.0108774 -0.000836056 0.0163414
912 61 H4 4.13468 24.5899 14.3549 -0.0129713 0.0109088 -0.019514
913 61 H4 5.91498 27.7944 12.6321 0.00109538 -0.010542 -0.00812796
914 61 Ha 5.64416 29.2477 14.7341 -0.0016773 0.00638293 0.00711081
915 61 Ha 4.53964 28.1955 16.7025 -0.0282609 0.00602092 0.00706089
916 62 Ca1 5.38931 22.7736 21.3724 -0.00129317 0.00136694 0.000942158
917 62 Ca 5.26892 23.4682 22.5731 0.000616391 -0.00265795 0.0018417
918 62 Nb 4.73576 22.9206 23.668 -0.000539822 -0.00096667 -0.00164246
919 62 Ca2 4.33392 21.6583 23.6107 0.00321867 -0.000772053 0.00126096
920 62 Ca 4.47096 20.8693 22.4425 0.00172131 0.000772218 -0.00190577
921 62 Ca 5.01926 21.4321 21.2981 0.000503024 -0.00128318 -0.00230307
922 62 C 5.96044 23.4215 20.1237 0.00119113 0.00241147 -0.00186369
923 62 O 6.49773 22.7782 19.2696 0.0052685 0.00110448 0.00163992
924 62 N 5.80379 24.7359 20.0893 0.000149752 -0.00268352 0.00166675
925 62 Hn 6.18613 25.2894 19.2865 -0.00406202 -0.00321567 0.031822
926 62 Hn 5.38024 25.269 20.7831 -0.00872214 0.0160015 0.0200385
927 62 H4 5.49776 24.4815 22.6271 -0.0139735 0.0247968 -0.000416631
928 62 H4 3.93868 21.1879 24.5144 0.0195908 0.00287482 0.00549791
929 62 Ha 4.10329 19.8472 22.4627 -0.00741273 -0.00321009 0.00239027
930 62 Ha 5.12931 20.7482 20.4485 0.00220926 -0.00897938 0.00948974
931 63 Ca1 2.811 20.3236 16.0054 0.00478365 -0.00203282 -0.00059579
932 63 Ca 20.9312 21.5709 16.2761 -0.00309952 -0.00189052 -0.000799237
933 63 Nb 20.4251 22.3712 15.3271 -0.00482863 -0.00252869 -0.000847861
934 63 Ca2 20.5029 21.9485 14.0395 -0.0045113 -0.00167127 -0.00420662
935 63 Ca 21.0534 20.7162 13.706 -0.0042108 -0.00339689 -0.000443925
936 63 Ca 2.82954 19.8954 14.6597 0.0026042 -0.00355263 -0.00390004
937 63 C 3.40969 19.4477 17.042 0.0026817 -0.00212425 -0.000627869
938 63 O 3.93896 18.4387 16.7718 0.00942232 0.00738353 -0.00400021
939 63 N 3.4251 19.9464 18.303 0.00427919 -0.00484199 -0.00197485
940 63 Hn 3.96041 19.4333 19.0382 0.0107099 0.0202707 -0.0138899
941 63 Hn 2.95351 20.8108 18.5327 -0.0119985 -0.0125469 0.00444635
942 63 H4 20.9189 21.9523 17.2733 0.0126891 0.00935474 -0.00272673
943 63 H4 20.1467 22.6753 13.2755 0.0112608 0.00367359 0.00979127
944 63 Ha 21.1397 20.4758 12.6392 0.0095231 0.0113984 -0.00232698
945 63 Ha 3.37062 18.9349 14.4201 0.0102612 0.0211 -0.00328946
946 64 Ca1 7.03105 28.7317 21.1127 0.00367518 0.000754404 -0.000788857
947 64 Ca 7.62768 27.5085 20.8266 0.00462295 0.00176018 0.000846931
948 64 Nb 8.12555 26.6872 21.7894 0.00220047 6.71311e-05 0.00104068
949 64 Ca2 8.06032 27.0886 23.0656 0.00438522 -0.00480266 0.0045936
950 64 Ca 7.51094 28.3208 23.4177 0.00344753 -0.00157754 0.00194058
951 64 Ca 6.93385 29.1679 22.4089 -0.00746013 -0.00205069 -0.00271468
952 64 C 6.40196 29.6162 20.0609 0.000642218 0.00195774 -0.000505795
953 64 O 5.91102 30.6724 20.3089 0.00395553 0.00221306 -0.00360504
954 64 N 6.36894 29.116 18.8066 -0.00469242 0.00283681 0.00170813
955 64 Hn 6.02102 29.7058 18.0156 0.0294385 -0.00515118 0.00125489
956 64 Hn 6.75972 28.1976 18.6435 -0.00966167 0.000570224 0.00731248
957 64 H4 7.72257 27.0875 19.861 0.00171428 -0.0127329 -0.00470969
958 64 H4 8.3724 26.4177 23.885 -0.0158914 -0.008383 -0.00141864
959 64 Ha 7.44263 28.634 24.4946 -0.0010672 -0.0119792 -0.00713681
960 64 Ha 6.53092 30.1478 22.6211 -0.00375795 0.00778419 -0.00926856
61 5 Ca1 6.13511 9.9681 3.40034 -0.000198218 0.00308247 0.00224428
62 5 Ca 6.29272 9.22367 2.18276 0.00449419 -0.00361502 0.00225384
63 5 Nb 6.80074 9.78312 1.06158 0.000649611 -0.000897902 -0.000252477
64 5 Ca2 7.19016 11.0641 1.1073 -0.00637873 0.00219941 -0.00577582
65 5 Ca 7.07277 11.8589 2.30573 0.000715374 0.00369762 0.00289821
66 5 Ca 6.51632 11.2634 3.4272 -0.00119262 -0.00216979 0.00111392
67 5 C 5.61263 9.32781 4.60556 0.00726609 0.00353244 0.00103385
68 5 O 5.0693 9.92607 5.45709 0.00215628 -0.00227764 -0.00422987
69 5 N 5.74292 7.9787 4.68585 0.00456303 0.00610139 0.00230971
70 5 Hn 5.34844 7.52367 5.51396 -0.000283864 0.00335056 -0.00457921
71 5 Hn 6.22538 7.52411 3.91396 0.00517188 0.0064536 0.00840613
72 5 H4 5.90483 8.2045 2.05155 -0.00586569 0.000858964 -0.00661968
73 5 H4 7.58398 11.4506 0.176019 -0.0196099 -0.010467 -0.0200543
74 5 Ha 7.45364 12.8986 2.33712 0.00827363 -0.00120946 0.00949194
75 5 Ha 6.31891 11.8186 4.35814 -0.0139415 -0.0120213 -0.00629117
76 6 Ca1 7.12715 6.4106 8.97413 -0.00220338 0.000708311 -0.00269863
77 6 Ca 6.9808 7.12254 10.1871 -0.0038385 0.00334084 -0.00269
78 6 Nb 6.48068 6.56369 11.3049 0.000946761 -0.00209952 -0.000189721
79 6 Ca2 6.06939 5.27593 11.249 0.0036953 -0.00389267 0.00302084
80 6 Ca 6.21129 4.52491 10.0971 0.00298506 -0.00011204 7.31663e-05
81 6 Ca 6.77322 5.09456 8.93998 0.00461201 0.00250068 -0.000989529
82 6 C 7.67415 7.04251 7.76287 -0.0041343 0.000717538 -0.00122295
83 6 O 8.2071 6.42254 6.89389 -0.00164713 0.00101193 0.000395117
84 6 N 7.57716 8.42843 7.71703 0.00729132 0.00560623 0.00511806
85 6 Hn 7.97695 8.82954 6.87164 0.0147055 4.08527e-05 0.00495659
86 6 Hn 7.07627 8.9651 8.42576 0.00233271 0.0184018 -0.0117446
87 6 H4 7.33255 8.18224 10.2397 -0.00693103 -0.00745695 -0.00486029
88 6 H4 5.6503 4.85283 12.1097 0.00352814 -0.00664314 0.0194393
89 6 Ha 5.9251 3.43724 9.94456 0.013896 0.0136613 -0.0152193
90 6 Ha 6.90322 4.4856 8.00245 0.00547755 0.012671 0.0144524
91 7 Ca1 4.50525 3.94207 3.59797 -0.00432905 -0.00803115 -0.00600341
92 7 Ca 3.91593 5.20365 3.90384 -0.00114122 -0.00451555 -0.00220893
93 7 Nb 3.39848 6.01174 2.97687 -0.00494639 -0.00308304 0.00447422
94 7 Ca2 3.51268 5.63513 1.69123 0.00426717 0.00745687 0.00184996
95 7 Ca 4.04585 4.37959 1.33663 -7.99075e-05 0.00207053 -0.000586463
96 7 Ca 4.56229 3.53303 2.28196 -0.000687119 -0.00295498 -0.00643925
97 7 C 5.16477 3.1198 4.70417 0.0070734 0.00254531 0.00499227
98 7 O 5.61957 2.02594 4.44129 -0.00555143 -0.0048555 0.00663713
99 7 N 5.17246 3.64567 5.95836 0.0060994 0.00903467 0.00193271
100 7 Hn 5.5291 3.07254 6.69695 -0.0132623 0.0033443 0.0210434
101 7 Hn 4.76501 4.52741 6.14157 -0.000921678 0.0206497 0.00525465
102 7 H4 3.92147 5.60387 4.88893 0.0210355 0.0098357 -0.000385123
103 7 H4 3.0661 6.35659 1.00468 -0.0033669 0.0196321 0.0197678
104 7 Ha 4.09078 4.12743 0.263616 0.00331817 0.0151046 0.000755415
105 7 Ha 4.96651 2.56381 2.07201 -0.00492332 -0.0123791 -0.0061046
106 8 Ca1 8.76218 12.379 8.73833 0.00246859 0.00273346 2.0946e-05
107 8 Ca 9.36095 11.1826 8.4657 0.00355956 0.00833803 0.00120517
108 8 Nb 9.84038 10.3112 9.40828 -0.00337536 -0.00419996 -0.00080943
109 8 Ca2 9.80455 10.7303 10.705 0.00477642 -0.00359031 0.00389629
110 8 Ca 9.24446 11.9544 11.0515 0.00301392 -0.00269266 0.00281499
111 8 Ca 8.70302 12.8283 10.0436 -0.000512028 0.00113693 -0.00130169
112 8 C 8.16296 13.2662 7.69354 0.0049127 0.00500341 -0.00184234
113 8 O 7.61647 14.3259 7.95289 -0.00332501 0.00336803 -0.000161923
114 8 N 8.11579 12.7739 6.38924 -0.00149786 0.00665183 -0.00491509
115 8 Hn 7.59357 13.312 5.72117 -0.0221424 -0.00120166 -0.0138568
116 8 Hn 8.50069 11.8581 6.28855 -0.00750707 -0.00614291 -0.00246122
117 8 H4 9.39731 10.8548 7.44546 -0.00901489 0.0129712 -2.11234e-05
118 8 H4 10.0727 10.1311 11.5183 -0.0113661 -0.0181187 0.024317
119 8 Ha 9.23815 12.3667 12.1043 0.0103452 0.000344006 -0.0122382
120 8 Ha 8.17157 13.7271 10.3394 -0.0221046 -0.00545157 0.00488668
661 45 Ca1 7.10664 14.0331 15.754 -0.00378274 0.00272378 0.0020941
662 45 Ca 7.25899 13.3268 14.5784 0.000430028 -0.000438103 0.00583039
663 45 Nb 7.77731 13.8699 13.4656 -0.000844452 0.00154556 0.00798704
664 45 Ca2 8.19875 15.1291 13.5122 0.000584135 -7.44548e-05 0.00115733
665 45 Ca 8.0823 15.9279 14.6613 0.00450532 -0.0004922 0.0027057
666 45 Ca 7.50548 15.3663 15.8254 0.000973416 0.00249966 0.00455344
667 45 C 6.56661 13.3509 16.9614 -0.000394345 -0.00617333 -0.00219788
668 45 O 6.04899 14.0064 17.8434 0.00177792 -0.00276013 -0.00168143
669 45 N 6.72576 12.0274 17.0277 0.0039963 -0.00202457 -0.00427737
670 45 Hn 6.37605 11.6183 17.8868 0.00797519 0.00417766 0.00220613
671 45 Hn 7.17104 11.4958 16.2833 -0.00257746 -0.0117917 0.00426592
672 45 H4 7.01425 12.2339 14.4354 0.0232427 0.0108648 0.00208978
673 45 H4 8.6774 15.5391 12.6246 0.00111836 -0.0145335 -0.000523559
674 45 Ha 8.30303 16.9554 14.6783 -0.00636237 0.0267624 -0.00179935
675 45 Ha 7.38758 15.96 16.721 -0.00156223 0.00445312 0.00653107
676 46 Ca1 8.13735 10.4934 21.3424 0.00375458 0.00128294 -0.00248364
677 46 Ca 7.98268 11.1974 22.547 0.000182664 0.00217733 -0.00516836
678 46 Nb 7.43744 10.6772 23.6662 -0.00547129 0.00597897 -0.0030666
679 46 Ca2 7.07891 9.34905 23.6075 0.00898705 -0.00525578 0.00221056
680 46 Ca 7.19882 8.55618 22.458 0.00486289 -0.00530514 -0.000169251
681 46 Ca 7.74333 9.18033 21.3021 0.000596457 0.00452523 -0.00137355
682 46 C 8.67047 11.1288 20.1567 0.000225548 0.00041874 0.00227902
683 46 O 9.21779 10.5166 19.2656 0.00458867 0.00577113 0.0015055
684 46 N 8.52624 12.4528 20.0673 -0.0014852 -0.00524526 0.000406086
685 46 Hn 8.9857 12.9203 19.3035 0.0265006 -0.00110085 0.0081244
686 46 Hn 8.12257 13.0039 20.7984 0.00847051 0.0126437 0.00150087
687 46 H4 8.35271 12.2268 22.5587 0.00490129 -7.56121e-05 -0.0128303
688 46 H4 6.66184 8.91933 24.528 0.0218054 0.00277923 0.00395107
689 46 Ha 6.84757 7.55548 22.4454 -0.00819725 -0.0220757 8.5492e-05
690 46 Ha 7.81668 8.58959 20.3917 -0.00711632 0.00943298 -0.0023737
691 47 Ca1 5.50471 8.05548 16.0314 -0.00150081 6.76744e-05 0.00350631
692 47 Ca 4.88165 9.28801 16.2848 -0.00665955 -0.00026431 -0.000757738
693 47 Nb 4.3839 10.1072 15.3049 -0.00430831 0.000188592 -0.0044569
694 47 Ca2 4.46409 9.65918 14.0507 -0.00408624 -0.00410188 -0.00347037
695 47 Ca 5.05445 8.43169 13.6976 0.00574391 -0.00483066 -0.00168267
696 47 Ca 5.55513 7.60733 14.6647 0.00283184 -0.00454829 -0.00076329
697 47 C 6.09874 7.20019 17.0352 -0.00280082 0.00107842 0.000366793
698 47 O 6.62532 6.10742 16.8012 -0.000826788 -0.00263747 0.00354856
699 47 N 6.11923 7.67677 18.3448 -0.00411587 -0.000270615 0.0056351
700 47 Hn 6.61784 7.17557 19.086 0.00489003 0.0152782 0.0113305
701 47 Hn 5.70556 8.60388 18.5068 0.00262868 -0.00933441 0.00257164
702 47 H4 4.77008 9.70107 17.2444 -0.00938139 0.0157198 0.00607335
703 47 H4 3.99257 10.36 13.313 -0.0102154 -0.00972084 0.0197485
704 47 Ha 5.07021 8.08286 12.6626 0.00175351 -0.00968974 -0.000537084
705 47 Ha 5.98258 6.59585 14.4742 -0.00870125 0.0010936 0.00533038
706 48 Ca1 9.73875 16.457 21.1071 0.00174192 0.000546633 -0.000294108
707 48 Ca 10.3375 15.2161 20.843 0.000799756 -5.60596e-05 0.00360017
708 48 Nb 10.8341 14.4034 21.772 -0.000623047 -0.00125386 -0.0026696
709 48 Ca2 10.7591 14.8296 23.0288 -0.000776838 0.00101931 -0.00442842
710 48 Ca 10.1994 16.0655 23.3889 -0.00261625 0.00164142 -0.00411887
711 48 Ca 9.7127 16.8953 22.4129 0.00405992 0.00299247 -0.00353159
712 48 C 9.13681 17.3284 20.0868 0.00363337 -0.000516759 0.00355303
713 48 O 8.62464 18.3677 20.3245 0.00186662 -0.00360639 0.000524215
714 48 N 9.10557 16.822 18.8048 0.000490129 -0.00245534 0.00335936
715 48 Hn 8.67001 17.4282 18.1084 0.00610249 0.00256891 0.00276853
716 48 Hn 9.57275 15.9101 18.5845 -0.0014039 0.023987 -0.0021963
717 48 H4 10.4741 14.8181 19.8837 0.00867452 -0.0131431 -0.0046253
718 48 H4 11.2872 14.2625 23.8026 0.0267168 0.0170476 -0.0142766
719 48 Ha 10.1968 16.3833 24.4517 0.00418318 6.01763e-05 -0.00972218
720 48 Ha 9.29604 17.8833 22.6695 0.0146449 -0.000784049 -0.00418389
361 25 Ca1 7.19525 22.2275 3.35988 0.00549704 5.25432e-05 -0.00359063
362 25 Ca 7.28221 21.5091 2.17097 -0.00484488 -0.00268424 -0.00287056
363 25 Nb 7.8006 22.091 1.06119 -0.00713047 0.00583109 0.000193326
364 25 Ca2 8.23873 23.3517 1.16119 -0.000706731 0.00353286 0.00163985
365 25 Ca 8.10436 24.1331 2.27073 -0.00123045 0.000159031 -0.00177225
366 25 Ca 7.55159 23.5641 3.43683 0.000634472 0.0023616 0.00177082
367 25 C 6.60736 21.5899 4.58074 -0.00181466 0.000626192 -0.00418557
368 25 O 6.08846 22.2284 5.47838 -2.36315e-05 0.00219568 -0.000610252
369 25 N 6.77605 20.2365 4.6726 0.00552501 0.000782236 -0.00244339
370 25 Hn 6.38833 19.767 5.46507 -0.00675616 -0.0115399 0.00179112
371 25 Hn 7.21813 19.744 3.88948 -0.00623539 -0.000494205 0.00560021
372 25 H4 6.95978 20.4698 2.05122 -0.00402809 -0.00260889 -0.00734141
373 25 H4 8.67638 23.7628 0.202767 -0.0178015 -0.0151173 0.0131072
374 25 Ha 8.44821 25.1056 2.2188 0.0152083 0.0253598 -0.0158407
375 25 Ha 7.42655 24.1374 4.38484 0.000642892 -0.0105544 -0.00536257
376 26 Ca1 8.15771 18.6985 9.00522 -0.00259195 -0.000547298 0.00285151
377 26 Ca 8.04794 19.4116 10.181 0.00371993 0.0039618 -0.00165327
378 26 Nb 7.50018 18.8583 11.3098 -0.00142722 0.00187655 0.00021668
379 26 Ca2 7.07919 17.5653 11.2483 -0.00319996 -0.00333403 0.00550664
380 26 Ca 7.21513 16.7949 10.1174 -0.00292311 -0.000433142 0.00495602
381 26 Ca 7.77896 17.3252 8.93503 -0.00133395 -0.00419124 0.00156679
382 26 C 8.7161 19.3273 7.79242 0.000489324 -0.00034603 0.00225239
383 26 O 9.25383 18.6841 6.87714 0.00115927 -0.00243565 -0.00197152
384 26 N 8.58721 20.694 7.67137 -0.000165491 0.00484964 -0.00231667
385 26 Hn 8.9484 21.2032 6.8659 0.00344861 0.01222 -0.00157663
386 26 Hn 8.09345 21.2023 8.47002 0.0176494 -0.00967814 -0.0349754
387 26 H4 8.46199 20.4185 10.2333 0.0214153 0.000876338 -0.0058393
388 26 H4 6.62657 17.0408 12.1189 0.0073701 -0.00398066 -0.00625705
389 26 Ha 6.94887 15.7436 10.0651 0.0046284 -0.00760924 0.00636902
390 26 Ha 7.93836 16.786 8.03057 0.00826797 -0.00943945 -0.0105331
391 27 Ca1 5.58249 16.2488 3.64251 0.00505243 -0.00136582 0.000368615
392 27 Ca 4.91476 17.4745 3.90914 -0.00837648 -0.00662153 -0.000324343
393 27 Nb 4.47372 18.2957 2.94311 0.00513581 -0.00191119 -0.00304955
394 27 Ca2 4.50434 17.8981 1.66943 -0.00513811 0.0051551 -0.00614339
395 27 Ca 5.10052 16.6802 1.31162 0.00480438 0.0070428 -0.0048508
396 27 Ca 5.5899 15.8165 2.29096 -0.000450807 -0.00187123 -0.0048288
397 27 C 6.14146 15.3935 4.67529 -0.00426908 -0.000934944 -0.000241813
398 27 O 6.68522 14.3292 4.42037 0.00246292 0.0014365 0.00106675
399 27 N 6.17339 15.8664 5.92726 -0.0015962 -0.00551804 -0.00530427
400 27 Hn 6.56036 15.2717 6.63205 -0.0127273 -0.0166535 0.00453642
401 27 Hn 5.84606 16.7678 6.14187 0.00976404 0.0149023 0.00648958
402 27 H4 4.84336 17.8239 4.91431 -0.00671477 -0.000912124 0.0023146
403 27 H4 4.11638 18.6652 0.914888 0.00931276 0.00689559 0.023463
404 27 Ha 5.05446 16.4522 0.244351 -0.00582475 0.0193676 -0.0123415
405 27 Ha 6.04732 14.8671 1.99181 -0.000214678 0.00441348 -0.013696
406 28 Ca1 9.77281 24.6455 8.74788 -0.00212718 -0.00226886 0.00138233
407 28 Ca 10.3751 23.4154 8.43943 -0.00215152 5.01685e-05 -0.00395706
408 28 Nb 10.8789 22.6174 9.38882 -0.0013484 0.0015979 -0.00463944
409 28 Ca2 10.8244 23.0615 10.6909 0.00353213 0.00601868 0.00131212
410 28 Ca 10.2653 24.2666 11.0562 0.00135869 0.00214514 0.00470015
411 28 Ca 9.72887 25.0686 10.0744 -0.00256668 -0.00556926 0.00271095
412 28 C 9.16343 25.5486 7.67959 -0.000964709 0.00367842 -0.00221597
413 28 O 8.64738 26.5901 7.95662 -0.0040553 0.000611734 0.000652931
414 28 N 9.15193 25.0463 6.42632 -0.00135158 0.00530369 0.000652631
415 28 Hn 8.69602 25.6216 5.722 0.00130755 0.00155723 -0.000370785
416 28 Hn 9.57641 24.1699 6.21685 0.00738337 0.000543554 -0.00823629
417 28 H4 10.3609 23.0655 7.4489 -0.0242466 -0.0093465 -0.0131729
418 28 H4 11.1328 22.3828 11.4929 -0.0159163 0.00041654 -0.000916558
419 28 Ha 10.2457 24.559 12.1146 0.00346883 -0.00363472 0.00507625
420 28 Ha 9.34979 26.0627 10.2407 0.00870547 0.00668401 -0.00586355
961 65 Ca1 8.15375 26.2832 15.7414 0.000703979 -0.00352044 -0.00297538
962 65 Ca 8.29201 25.5527 14.5648 0.00107566 -0.00977297 0.00365206
963 65 Nb 8.79238 26.1375 13.4402 -0.00502084 -0.000965187 0.00259245
964 65 Ca2 9.22023 27.4238 13.5472 -0.00241784 0.000538337 0.0071636
965 65 Ca 9.11549 28.1835 14.6709 0.00562745 -0.00157267 0.00608859
966 65 Ca 8.49887 27.6385 15.7997 -0.00790048 -0.000605848 0.00132784
967 65 C 7.61949 25.6605 16.9312 0.00329764 -0.00133414 -0.00601673
968 65 O 7.07593 26.2935 17.8382 0.00120409 -0.000874717 -0.00387457
969 65 N 7.75528 24.3015 17.0586 0.0053466 -0.00334017 0.000789111
970 65 Hn 7.39058 23.7884 17.8484 -0.0020961 -0.0142874 0.00188963
971 65 Hn 8.30023 23.7973 16.3318 0.0100378 0.00213251 0.0288706
972 65 H4 7.85594 24.5696 14.494 -0.0238574 -0.0100445 0.00252418
973 65 H4 9.5794 27.8489 12.6131 -0.0260102 -0.00234456 -5.89874e-05
974 65 Ha 9.33362 29.2669 14.6875 -0.0137087 -0.000652516 0.00116873
975 65 Ha 8.52434 28.1137 16.8167 0.0218867 -0.0258639 0.00416253
976 66 Ca1 9.14208 22.7589 21.3675 -0.00187248 -0.00168534 0.00327924
977 66 Ca 9.04089 23.4845 22.5821 0.00568238 0.00216888 0.00398824
978 66 Nb 8.47959 22.9384 23.6829 -0.00246383 0.00219258 0.000801031
979 66 Ca2 8.09408 21.6398 23.5886 0.00539078 -0.00165409 -0.00204877
980 66 Ca 8.20084 20.8487 22.4757 -0.0029592 -0.00478571 0.00242881