ITEM: TIMESTEP
0
ITEM: NUMBER OF ATOMS
3456
ITEM: BOX BOUNDS pp pp pp
4.8277534548489230e-02 3.3341722465451504e+01
4.8277534548489216e-02 3.3341722465451504e+01
1.1821245000000005e-01 2.7985787549999944e+01
ITEM: ATOMS id mol element sym_type x y z
2 1 2 2 0.0482775 2.82273 2.88312
3 1 4 3 0.857859 3.63231 0.938242
4 1 1 0 1.47712 4.25158 1.43124
9 2 3 1 2.82273 0.0482775 3.24865
11 2 4 3 2.01315 0.857859 3.94278
12 2 1 0 1.39389 1.47712 3.44978
13 2 1 0 2.02313 0.847875 4.93931
579 73 4 3 0.857859 3.63231 5.58284
580 73 1 0 1.47712 4.25158 6.07584
581 73 1 0 0.847875 3.62233 4.58631
2893 362 1 0 2.02313 0.847875 0.29471
105 14 3 1 2.82273 5.59719 3.24865
106 14 2 2 2.82273 5.59719 1.9979
107 14 4 3 2.01315 6.40677 3.94278
109 14 1 0 2.02313 6.39678 4.93931
110 14 4 4 3.63231 4.7876 3.94278
111 14 1 0 4.25158 4.16834 3.44978
112 14 1 0 3.62233 4.79759 4.93931
682 86 2 2 2.82273 5.59719 6.64249
2989 374 1 0 2.02313 6.39678 0.29471
2992 374 1 0 3.62233 4.79759 0.29471
17 3 3 1 5.59719 2.82273 1.63237
18 3 2 2 5.59719 2.82273 2.88312
19 3 4 3 6.40677 3.63231 0.938242
22 3 4 4 4.7876 2.01315 0.938242
23 3 1 0 4.16834 1.39389 1.43124
593 75 3 1 5.59719 2.82273 6.27697
595 75 4 3 6.40677 3.63231 5.58284
597 75 1 0 6.39678 3.62233 4.58631
598 75 4 4 4.7876 2.01315 5.58284
599 75 1 0 4.16834 1.39389 6.07584
600 75 1 0 4.79759 2.02313 4.58631
20 3 1 0 7.02603 4.25158 1.43124
26 4 2 2 8.37164 0.0482775 1.9979
27 4 4 3 7.56206 0.857859 3.94278
28 4 1 0 6.94279 1.47712 3.44978
29 4 1 0 7.57204 0.847875 4.93931
596 75 1 0 7.02603 4.25158 6.07584
602 76 2 2 8.37164 0.0482775 6.64249
2909 364 1 0 7.57204 0.847875 0.29471
121 16 3 1 8.37164 5.59719 3.24865
122 16 2 2 8.37164 5.59719 1.9979
123 16 4 3 7.56206 6.40677 3.94278
125 16 1 0 7.57204 6.39678 4.93931
126 16 4 4 9.18122 4.7876 3.94278
127 16 1 0 9.80048 4.16834 3.44978
128 16 1 0 9.17124 4.79759 4.93931
698 88 2 2 8.37164 5.59719 6.64249
3005 376 1 0 7.57204 6.39678 0.29471
3008 376 1 0 9.17124 4.79759 0.29471
33 5 3 1 11.1461 2.82273 1.63237
34 5 2 2 11.1461 2.82273 2.88312
35 5 4 3 11.9557 3.63231 0.938242
36 5 1 0 12.5749 4.25158 1.43124
38 5 4 4 10.3365 2.01315 0.938242
39 5 1 0 9.71725 1.39389 1.43124
43 6 4 3 13.111 0.857859 3.94278
44 6 1 0 12.4917 1.47712 3.44978
45 6 1 0 13.1209 0.847875 4.93931
609 77 3 1 11.1461 2.82273 6.27697
611 77 4 3 11.9557 3.63231 5.58284
612 77 1 0 12.5749 4.25158 6.07584
613 77 1 0 11.9457 3.62233 4.58631
614 77 4 4 10.3365 2.01315 5.58284
615 77 1 0 9.71725 1.39389 6.07584
616 77 1 0 10.3465 2.02313 4.58631
2925 366 1 0 13.1209 0.847875 0.29471
139 18 4 3 13.111 6.40677 3.94278
141 18 1 0 13.1209 6.39678 4.93931
3021 378 1 0 13.1209 6.39678 0.29471
41 6 3 1 13.9205 0.0482775 3.24865
137 18 3 1 13.9205 5.59719 3.24865
138 18 2 2 13.9205 5.59719 1.9979
142 18 4 4 14.7301 4.7876 3.94278
143 18 1 0 15.3494 4.16834 3.44978
144 18 1 0 14.7201 4.79759 4.93931
714 90 2 2 13.9205 5.59719 6.64249
3024 378 1 0 14.7201 4.79759 0.29471
49 7 3 1 16.695 2.82273 1.63237
50 7 2 2 16.695 2.82273 2.88312
51 7 4 3 17.5046 3.63231 0.938242
52 7 1 0 18.1238 4.25158 1.43124
54 7 4 4 15.8854 2.01315 0.938242
55 7 1 0 15.2662 1.39389 1.43124
58 8 2 2 19.4695 0.0482775 1.9979
59 8 4 3 18.6599 0.857859 3.94278
60 8 1 0 18.0406 1.47712 3.44978
61 8 1 0 18.6699 0.847875 4.93931
625 79 3 1 16.695 2.82273 6.27697
627 79 4 3 17.5046 3.63231 5.58284
628 79 1 0 18.1238 4.25158 6.07584
629 79 1 0 17.4946 3.62233 4.58631
630 79 4 4 15.8854 2.01315 5.58284
631 79 1 0 15.2662 1.39389 6.07584
632 79 1 0 15.8954 2.02313 4.58631
634 80 2 2 19.4695 0.0482775 6.64249
2941 368 1 0 18.6699 0.847875 0.29471
153 20 3 1 19.4695 5.59719 3.24865
154 20 2 2 19.4695 5.59719 1.9979
155 20 4 3 18.6599 6.40677 3.94278
157 20 1 0 18.6699 6.39678 4.93931
730 92 2 2 19.4695 5.59719 6.64249
3037 380 1 0 18.6699 6.39678 0.29471
158 20 4 4 20.279 4.7876 3.94278
159 20 1 0 20.8983 4.16834 3.44978
160 20 1 0 20.2691 4.79759 4.93931
3040 380 1 0 20.2691 4.79759 0.29471
65 9 3 1 22.2439 2.82273 1.63237
66 9 2 2 22.2439 2.82273 2.88312
67 9 4 3 23.0535 3.63231 0.938242
68 9 1 0 23.6728 4.25158 1.43124
70 9 4 4 21.4343 2.01315 0.938242
71 9 1 0 20.8151 1.39389 1.43124
73 10 3 1 25.0184 0.0482775 3.24865
75 10 4 3 24.2088 0.857859 3.94278
76 10 1 0 23.5895 1.47712 3.44978
77 10 1 0 24.2188 0.847875 4.93931
641 81 3 1 22.2439 2.82273 6.27697
643 81 4 3 23.0535 3.63231 5.58284
644 81 1 0 23.6728 4.25158 6.07584
645 81 1 0 23.0435 3.62233 4.58631
646 81 4 4 21.4343 2.01315 5.58284
647 81 1 0 20.8151 1.39389 6.07584
648 81 1 0 21.4443 2.02313 4.58631
2957 370 1 0 24.2188 0.847875 0.29471
169 22 3 1 25.0184 5.59719 3.24865
170 22 2 2 25.0184 5.59719 1.9979
171 22 4 3 24.2088 6.40677 3.94278
173 22 1 0 24.2188 6.39678 4.93931
174 22 4 4 25.8279 4.7876 3.94278
175 22 1 0 26.4472 4.16834 3.44978
176 22 1 0 25.818 4.79759 4.93931
746 94 2 2 25.0184 5.59719 6.64249
3053 382 1 0 24.2188 6.39678 0.29471
3056 382 1 0 25.818 4.79759 0.29471
87 11 1 0 26.364 1.39389 1.43124
663 83 1 0 26.364 1.39389 6.07584
1 1 3 1 33.3417 2.82273 1.63237
577 73 3 1 33.3417 2.82273 6.27697
6 1 4 4 32.5321 2.01315 0.938242
7 1 1 0 31.9129 1.39389 1.43124
582 73 4 4 32.5321 2.01315 5.58284
583 73 1 0 31.9129 1.39389 6.07584
584 73 1 0 32.5421 2.02313 4.58631
81 11 3 1 27.7928 2.82273 1.63237
82 11 2 2 27.7928 2.82273 2.88312
83 11 4 3 28.6024 3.63231 0.938242
84 11 1 0 29.2217 4.25158 1.43124
86 11 4 4 26.9832 2.01315 0.938242
90 12 2 2 30.5673 0.0482775 1.9979
91 12 4 3 29.7577 0.857859 3.94278
92 12 1 0 29.1384 1.47712 3.44978
93 12 1 0 29.7677 0.847875 4.93931
657 83 3 1 27.7928 2.82273 6.27697
659 83 4 3 28.6024 3.63231 5.58284
660 83 1 0 29.2217 4.25158 6.07584
661 83 1 0 28.5924 3.62233 4.58631
662 83 4 4 26.9832 2.01315 5.58284
664 83 1 0 26.9932 2.02313 4.58631
666 84 2 2 30.5673 0.0482775 6.64249
2973 372 1 0 29.7677 0.847875 0.29471
185 24 3 1 30.5673 5.59719 3.24865
186 24 2 2 30.5673 5.59719 1.9979
187 24 4 3 29.7577 6.40677 3.94278
189 24 1 0 29.7677 6.39678 4.93931
190 24 4 4 31.3768 4.7876 3.94278
191 24 1 0 31.9961 4.16834 3.44978
192 24 1 0 31.3669 4.79759 4.93931
762 96 2 2 30.5673 5.59719 6.64249
3069 384 1 0 29.7677 6.39678 0.29471
3072 384 1 0 31.3669 4.79759 0.29471
97 13 3 1 0.0482775 8.37164 1.63237
99 13 4 3 0.857859 9.18122 0.938242
100 13 1 0 1.47712 9.80048 1.43124
108 14 1 0 1.39389 7.02603 3.44978
673 85 3 1 0.0482775 8.37164 6.27697
675 85 4 3 0.857859 9.18122 5.58284
676 85 1 0 1.47712 9.80048 6.07584
677 85 1 0 0.847875 9.17124 4.58631
201 26 3 1 2.82273 11.1461 3.24865
202 26 2 2 2.82273 11.1461 1.9979
203 26 4 3 2.01315 11.9557 3.94278
204 26 1 0 1.39389 12.5749 3.44978
205 26 1 0 2.02313 11.9457 4.93931
206 26 4 4 3.63231 10.3365 3.94278
207 26 1 0 4.25158 9.71725 3.44978
208 26 1 0 3.62233 10.3465 4.93931
778 98 2 2 2.82273 11.1461 6.64249
3085 386 1 0 2.02313 11.9457 0.29471
3088 386 1 0 3.62233 10.3465 0.29471
113 15 3 1 5.59719 8.37164 1.63237
114 15 2 2 5.59719 8.37164 2.88312
115 15 4 3 6.40677 9.18122 0.938242
118 15 4 4 4.7876 7.56206 0.938242
119 15 1 0 4.16834 6.94279 1.43124
689 87 3 1 5.59719 8.37164 6.27697
691 87 4 3 6.40677 9.18122 5.58284
693 87 1 0 6.39678 9.17124 4.58631
694 87 4 4 4.7876 7.56206 5.58284
695 87 1 0 4.16834 6.94279 6.07584
696 87 1 0 4.79759 7.57204 4.58631
214 27 4 4 4.7876 13.111 0.938242
215 27 1 0 4.16834 12.4917 1.43124
790 99 4 4 4.7876 13.111 5.58284
791 99 1 0 4.16834 12.4917 6.07584
792 99 1 0 4.79759 13.1209 4.58631
116 15 1 0 7.02603 9.80048 1.43124
124 16 1 0 6.94279 7.02603 3.44978
692 87 1 0 7.02603 9.80048 6.07584
217 28 3 1 8.37164 11.1461 3.24865
218 28 2 2 8.37164 11.1461 1.9979
219 28 4 3 7.56206 11.9557 3.94278
220 28 1 0 6.94279 12.5749 3.44978
221 28 1 0 7.57204 11.9457 4.93931
222 28 4 4 9.18122 10.3365 3.94278
223 28 1 0 9.80048 9.71725 3.44978
224 28 1 0 9.17124 10.3465 4.93931
794 100 2 2 8.37164 11.1461 6.64249
3101 388 1 0 7.57204 11.9457 0.29471
3104 388 1 0 9.17124 10.3465 0.29471
129 17 3 1 11.1461 8.37164 1.63237
130 17 2 2 11.1461 8.37164 2.88312
131 17 4 3 11.9557 9.18122 0.938242
132 17 1 0 12.5749 9.80048 1.43124
134 17 4 4 10.3365 7.56206 0.938242
135 17 1 0 9.71725 6.94279 1.43124
140 18 1 0 12.4917 7.02603 3.44978
705 89 3 1 11.1461 8.37164 6.27697
707 89 4 3 11.9557 9.18122 5.58284
708 89 1 0 12.5749 9.80048 6.07584
709 89 1 0 11.9457 9.17124 4.58631
710 89 4 4 10.3365 7.56206 5.58284
711 89 1 0 9.71725 6.94279 6.07584
712 89 1 0 10.3465 7.57204 4.58631
230 29 4 4 10.3365 13.111 0.938242
231 29 1 0 9.71725 12.4917 1.43124
235 30 4 3 13.111 11.9557 3.94278
236 30 1 0 12.4917 12.5749 3.44978
237 30 1 0 13.1209 11.9457 4.93931
806 101 4 4 10.3365 13.111 5.58284
807 101 1 0 9.71725 12.4917 6.07584
808 101 1 0 10.3465 13.1209 4.58631
3117 390 1 0 13.1209 11.9457 0.29471
233 30 3 1 13.9205 11.1461 3.24865
234 30 2 2 13.9205 11.1461 1.9979
238 30 4 4 14.7301 10.3365 3.94278
239 30 1 0 15.3494 9.71725 3.44978
240 30 1 0 14.7201 10.3465 4.93931
810 102 2 2 13.9205 11.1461 6.64249
3120 390 1 0 14.7201 10.3465 0.29471
145 19 3 1 16.695 8.37164 1.63237
146 19 2 2 16.695 8.37164 2.88312
147 19 4 3 17.5046 9.18122 0.938242
148 19 1 0 18.1238 9.80048 1.43124
150 19 4 4 15.8854 7.56206 0.938242
151 19 1 0 15.2662 6.94279 1.43124
156 20 1 0 18.0406 7.02603 3.44978
721 91 3 1 16.695 8.37164 6.27697
723 91 4 3 17.5046 9.18122 5.58284
724 91 1 0 18.1238 9.80048 6.07584
725 91 1 0 17.4946 9.17124 4.58631
726 91 4 4 15.8854 7.56206 5.58284
727 91 1 0 15.2662 6.94279 6.07584
728 91 1 0 15.8954 7.57204 4.58631
246 31 4 4 15.8854 13.111 0.938242
247 31 1 0 15.2662 12.4917 1.43124
249 32 3 1 19.4695 11.1461 3.24865
250 32 2 2 19.4695 11.1461 1.9979
251 32 4 3 18.6599 11.9557 3.94278
252 32 1 0 18.0406 12.5749 3.44978
253 32 1 0 18.6699 11.9457 4.93931
822 103 4 4 15.8854 13.111 5.58284
823 103 1 0 15.2662 12.4917 6.07584
824 103 1 0 15.8954 13.1209 4.58631
826 104 2 2 19.4695 11.1461 6.64249
3133 392 1 0 18.6699 11.9457 0.29471
254 32 4 4 20.279 10.3365 3.94278
255 32 1 0 20.8983 9.71725 3.44978
256 32 1 0 20.2691 10.3465 4.93931
3136 392 1 0 20.2691 10.3465 0.29471
161 21 3 1 22.2439 8.37164 1.63237
162 21 2 2 22.2439 8.37164 2.88312
163 21 4 3 23.0535 9.18122 0.938242
164 21 1 0 23.6728 9.80048 1.43124
166 21 4 4 21.4343 7.56206 0.938242
167 21 1 0 20.8151 6.94279 1.43124
172 22 1 0 23.5895 7.02603 3.44978
737 93 3 1 22.2439 8.37164 6.27697
739 93 4 3 23.0535 9.18122 5.58284
740 93 1 0 23.6728 9.80048 6.07584
741 93 1 0 23.0435 9.17124 4.58631
742 93 4 4 21.4343 7.56206 5.58284
743 93 1 0 20.8151 6.94279 6.07584
744 93 1 0 21.4443 7.57204 4.58631
262 33 4 4 21.4343 13.111 0.938242
263 33 1 0 20.8151 12.4917 1.43124
265 34 3 1 25.0184 11.1461 3.24865
266 34 2 2 25.0184 11.1461 1.9979
267 34 4 3 24.2088 11.9557 3.94278
268 34 1 0 23.5895 12.5749 3.44978
269 34 1 0 24.2188 11.9457 4.93931
270 34 4 4 25.8279 10.3365 3.94278
271 34 1 0 26.4472 9.71725 3.44978
272 34 1 0 25.818 10.3465 4.93931
838 105 4 4 21.4343 13.111 5.58284
839 105 1 0 20.8151 12.4917 6.07584
840 105 1 0 21.4443 13.1209 4.58631
842 106 2 2 25.0184 11.1461 6.64249
3149 394 1 0 24.2188 11.9457 0.29471
3152 394 1 0 25.818 10.3465 0.29471
183 23 1 0 26.364 6.94279 1.43124
759 95 1 0 26.364 6.94279 6.07584
279 35 1 0 26.364 12.4917 1.43124
855 107 1 0 26.364 12.4917 6.07584
98 13 2 2 33.3417 8.37164 2.88312
102 13 4 4 32.5321 7.56206 0.938242
103 13 1 0 31.9129 6.94279 1.43124
678 85 4 4 32.5321 7.56206 5.58284
679 85 1 0 31.9129 6.94279 6.07584
680 85 1 0 32.5421 7.57204 4.58631
198 25 4 4 32.5321 13.111 0.938242
199 25 1 0 31.9129 12.4917 1.43124
774 97 4 4 32.5321 13.111 5.58284
775 97 1 0 31.9129 12.4917 6.07584
776 97 1 0 32.5421 13.1209 4.58631
177 23 3 1 27.7928 8.37164 1.63237
178 23 2 2 27.7928 8.37164 2.88312
179 23 4 3 28.6024 9.18122 0.938242
180 23 1 0 29.2217 9.80048 1.43124
182 23 4 4 26.9832 7.56206 0.938242
188 24 1 0 29.1384 7.02603 3.44978
753 95 3 1 27.7928 8.37164 6.27697
755 95 4 3 28.6024 9.18122 5.58284
756 95 1 0 29.2217 9.80048 6.07584
757 95 1 0 28.5924 9.17124 4.58631
758 95 4 4 26.9832 7.56206 5.58284
760 95 1 0 26.9932 7.57204 4.58631
278 35 4 4 26.9832 13.111 0.938242
281 36 3 1 30.5673 11.1461 3.24865
282 36 2 2 30.5673 11.1461 1.9979
283 36 4 3 29.7577 11.9557 3.94278
284 36 1 0 29.1384 12.5749 3.44978
285 36 1 0 29.7677 11.9457 4.93931
286 36 4 4 31.3768 10.3365 3.94278
287 36 1 0 31.9961 9.71725 3.44978
288 36 1 0 31.3669 10.3465 4.93931
854 107 4 4 26.9832 13.111 5.58284
856 107 1 0 26.9932 13.1209 4.58631
858 108 2 2 30.5673 11.1461 6.64249
3165 396 1 0 29.7677 11.9457 0.29471
3168 396 1 0 31.3669 10.3465 0.29471
194 25 2 2 0.0482775 13.9205 2.88312
195 25 4 3 0.857859 14.7301 0.938242
196 25 1 0 1.47712 15.3494 1.43124
771 97 4 3 0.857859 14.7301 5.58284
772 97 1 0 1.47712 15.3494 6.07584
773 97 1 0 0.847875 14.7201 4.58631
289 37 3 1 0.0482775 19.4695 1.63237
297 38 3 1 2.82273 16.695 3.24865
298 38 2 2 2.82273 16.695 1.9979
299 38 4 3 2.01315 17.5046 3.94278
300 38 1 0 1.39389 18.1238 3.44978
301 38 1 0 2.02313 17.4946 4.93931
302 38 4 4 3.63231 15.8854 3.94278
303 38 1 0 4.25158 15.2662 3.44978
304 38 1 0 3.62233 15.8954 4.93931
865 109 3 1 0.0482775 19.4695 6.27697
874 110 2 2 2.82273 16.695 6.64249
3181 398 1 0 2.02313 17.4946 0.29471
3184 398 1 0 3.62233 15.8954 0.29471
209 27 3 1 5.59719 13.9205 1.63237
210 27 2 2 5.59719 13.9205 2.88312
211 27 4 3 6.40677 14.7301 0.938242
785 99 3 1 5.59719 13.9205 6.27697
787 99 4 3 6.40677 14.7301 5.58284
789 99 1 0 6.39678 14.7201 4.58631
305 39 3 1 5.59719 19.4695 1.63237
306 39 2 2 5.59719 19.4695 2.88312
310 39 4 4 4.7876 18.6599 0.938242
311 39 1 0 4.16834 18.0406 1.43124
881 111 3 1 5.59719 19.4695 6.27697
886 111 4 4 4.7876 18.6599 5.58284
887 111 1 0 4.16834 18.0406 6.07584
888 111 1 0 4.79759 18.6699 4.58631
212 27 1 0 7.02603 15.3494 1.43124
788 99 1 0 7.02603 15.3494 6.07584
313 40 3 1 8.37164 16.695 3.24865
314 40 2 2 8.37164 16.695 1.9979
315 40 4 3 7.56206 17.5046 3.94278
316 40 1 0 6.94279 18.1238 3.44978
317 40 1 0 7.57204 17.4946 4.93931
318 40 4 4 9.18122 15.8854 3.94278
319 40 1 0 9.80048 15.2662 3.44978
320 40 1 0 9.17124 15.8954 4.93931
890 112 2 2 8.37164 16.695 6.64249
3197 400 1 0 7.57204 17.4946 0.29471
3200 400 1 0 9.17124 15.8954 0.29471
225 29 3 1 11.1461 13.9205 1.63237
226 29 2 2 11.1461 13.9205 2.88312
227 29 4 3 11.9557 14.7301 0.938242
228 29 1 0 12.5749 15.3494 1.43124
801 101 3 1 11.1461 13.9205 6.27697
803 101 4 3 11.9557 14.7301 5.58284
804 101 1 0 12.5749 15.3494 6.07584
805 101 1 0 11.9457 14.7201 4.58631
321 41 3 1 11.1461 19.4695 1.63237
322 41 2 2 11.1461 19.4695 2.88312
326 41 4 4 10.3365 18.6599 0.938242
327 41 1 0 9.71725 18.0406 1.43124
331 42 4 3 13.111 17.5046 3.94278
332 42 1 0 12.4917 18.1238 3.44978
333 42 1 0 13.1209 17.4946 4.93931
897 113 3 1 11.1461 19.4695 6.27697
902 113 4 4 10.3365 18.6599 5.58284
903 113 1 0 9.71725 18.0406 6.07584
904 113 1 0 10.3465 18.6699 4.58631
3213 402 1 0 13.1209 17.4946 0.29471
329 42 3 1 13.9205 16.695 3.24865
330 42 2 2 13.9205 16.695 1.9979
334 42 4 4 14.7301 15.8854 3.94278
335 42 1 0 15.3494 15.2662 3.44978
336 42 1 0 14.7201 15.8954 4.93931
906 114 2 2 13.9205 16.695 6.64249
3216 402 1 0 14.7201 15.8954 0.29471
241 31 3 1 16.695 13.9205 1.63237
242 31 2 2 16.695 13.9205 2.88312
243 31 4 3 17.5046 14.7301 0.938242
244 31 1 0 18.1238 15.3494 1.43124
817 103 3 1 16.695 13.9205 6.27697
819 103 4 3 17.5046 14.7301 5.58284
820 103 1 0 18.1238 15.3494 6.07584
821 103 1 0 17.4946 14.7201 4.58631
337 43 3 1 16.695 19.4695 1.63237
338 43 2 2 16.695 19.4695 2.88312
342 43 4 4 15.8854 18.6599 0.938242
343 43 1 0 15.2662 18.0406 1.43124
345 44 3 1 19.4695 16.695 3.24865
346 44 2 2 19.4695 16.695 1.9979
347 44 4 3 18.6599 17.5046 3.94278
348 44 1 0 18.0406 18.1238 3.44978
349 44 1 0 18.6699 17.4946 4.93931
913 115 3 1 16.695 19.4695 6.27697
918 115 4 4 15.8854 18.6599 5.58284
919 115 1 0 15.2662 18.0406 6.07584
920 115 1 0 15.8954 18.6699 4.58631
922 116 2 2 19.4695 16.695 6.64249
3229 404 1 0 18.6699 17.4946 0.29471
350 44 4 4 20.279 15.8854 3.94278
351 44 1 0 20.8983 15.2662 3.44978
352 44 1 0 20.2691 15.8954 4.93931
3232 404 1 0 20.2691 15.8954 0.29471
257 33 3 1 22.2439 13.9205 1.63237
258 33 2 2 22.2439 13.9205 2.88312
259 33 4 3 23.0535 14.7301 0.938242
260 33 1 0 23.6728 15.3494 1.43124
833 105 3 1 22.2439 13.9205 6.27697
835 105 4 3 23.0535 14.7301 5.58284
836 105 1 0 23.6728 15.3494 6.07584
837 105 1 0 23.0435 14.7201 4.58631
353 45 3 1 22.2439 19.4695 1.63237
354 45 2 2 22.2439 19.4695 2.88312
358 45 4 4 21.4343 18.6599 0.938242
359 45 1 0 20.8151 18.0406 1.43124
361 46 3 1 25.0184 16.695 3.24865
362 46 2 2 25.0184 16.695 1.9979
363 46 4 3 24.2088 17.5046 3.94278
364 46 1 0 23.5895 18.1238 3.44978
365 46 1 0 24.2188 17.4946 4.93931
366 46 4 4 25.8279 15.8854 3.94278
367 46 1 0 26.4472 15.2662 3.44978
368 46 1 0 25.818 15.8954 4.93931
929 117 3 1 22.2439 19.4695 6.27697
934 117 4 4 21.4343 18.6599 5.58284
935 117 1 0 20.8151 18.0406 6.07584
936 117 1 0 21.4443 18.6699 4.58631
938 118 2 2 25.0184 16.695 6.64249
3245 406 1 0 24.2188 17.4946 0.29471
3248 406 1 0 25.818 15.8954 0.29471
375 47 1 0 26.364 18.0406 1.43124
951 119 1 0 26.364 18.0406 6.07584
193 25 3 1 33.3417 13.9205 1.63237
769 97 3 1 33.3417 13.9205 6.27697
290 37 2 2 33.3417 19.4695 2.88312
294 37 4 4 32.5321 18.6599 0.938242
295 37 1 0 31.9129 18.0406 1.43124
870 109 4 4 32.5321 18.6599 5.58284
871 109 1 0 31.9129 18.0406 6.07584
872 109 1 0 32.5421 18.6699 4.58631
273 35 3 1 27.7928 13.9205 1.63237
274 35 2 2 27.7928 13.9205 2.88312
275 35 4 3 28.6024 14.7301 0.938242
276 35 1 0 29.2217 15.3494 1.43124
849 107 3 1 27.7928 13.9205 6.27697
851 107 4 3 28.6024 14.7301 5.58284
852 107 1 0 29.2217 15.3494 6.07584
853 107 1 0 28.5924 14.7201 4.58631
369 47 3 1 27.7928 19.4695 1.63237
370 47 2 2 27.7928 19.4695 2.88312
374 47 4 4 26.9832 18.6599 0.938242
377 48 3 1 30.5673 16.695 3.24865
378 48 2 2 30.5673 16.695 1.9979
379 48 4 3 29.7577 17.5046 3.94278
380 48 1 0 29.1384 18.1238 3.44978
381 48 1 0 29.7677 17.4946 4.93931
382 48 4 4 31.3768 15.8854 3.94278
383 48 1 0 31.9961 15.2662 3.44978
384 48 1 0 31.3669 15.8954 4.93931
945 119 3 1 27.7928 19.4695 6.27697
950 119 4 4 26.9832 18.6599 5.58284
952 119 1 0 26.9932 18.6699 4.58631
954 120 2 2 30.5673 16.695 6.64249
3261 408 1 0 29.7677 17.4946 0.29471
3264 408 1 0 31.3669 15.8954 0.29471
291 37 4 3 0.857859 20.279 0.938242
292 37 1 0 1.47712 20.8983 1.43124
867 109 4 3 0.857859 20.279 5.58284
868 109 1 0 1.47712 20.8983 6.07584
869 109 1 0 0.847875 20.2691 4.58631
386 49 2 2 0.0482775 25.0184 2.88312
387 49 4 3 0.857859 25.8279 0.938242
388 49 1 0 1.47712 26.4472 1.43124
393 50 3 1 2.82273 22.2439 3.24865
394 50 2 2 2.82273 22.2439 1.9979
395 50 4 3 2.01315 23.0535 3.94278
396 50 1 0 1.39389 23.6728 3.44978
397 50 1 0 2.02313 23.0435 4.93931
398 50 4 4 3.63231 21.4343 3.94278
399 50 1 0 4.25158 20.8151 3.44978
400 50 1 0 3.62233 21.4443 4.93931
963 121 4 3 0.857859 25.8279 5.58284
964 121 1 0 1.47712 26.4472 6.07584
965 121 1 0 0.847875 25.818 4.58631
970 122 2 2 2.82273 22.2439 6.64249
3277 410 1 0 2.02313 23.0435 0.29471
3280 410 1 0 3.62233 21.4443 0.29471
495 62 1 0 4.25158 26.364 3.44978
307 39 4 3 6.40677 20.279 0.938242
883 111 4 3 6.40677 20.279 5.58284
885 111 1 0 6.39678 20.2691 4.58631
401 51 3 1 5.59719 25.0184 1.63237
402 51 2 2 5.59719 25.0184 2.88312
403 51 4 3 6.40677 25.8279 0.938242
406 51 4 4 4.7876 24.2088 0.938242
407 51 1 0 4.16834 23.5895 1.43124
977 123 3 1 5.59719 25.0184 6.27697
979 123 4 3 6.40677 25.8279 5.58284
981 123 1 0 6.39678 25.818 4.58631
982 123 4 4 4.7876 24.2088 5.58284
983 123 1 0 4.16834 23.5895 6.07584
984 123 1 0 4.79759 24.2188 4.58631
308 39 1 0 7.02603 20.8983 1.43124
884 111 1 0 7.02603 20.8983 6.07584
404 51 1 0 7.02603 26.4472 1.43124
409 52 3 1 8.37164 22.2439 3.24865
410 52 2 2 8.37164 22.2439 1.9979
411 52 4 3 7.56206 23.0535 3.94278
412 52 1 0 6.94279 23.6728 3.44978
413 52 1 0 7.57204 23.0435 4.93931
414 52 4 4 9.18122 21.4343 3.94278
415 52 1 0 9.80048 20.8151 3.44978
416 52 1 0 9.17124 21.4443 4.93931
980 123 1 0 7.02603 26.4472 6.07584
986 124 2 2 8.37164 22.2439 6.64249
3293 412 1 0 7.57204 23.0435 0.29471
3296 412 1 0 9.17124 21.4443 0.29471
511 64 1 0 9.80048 26.364 3.44978
323 41 4 3 11.9557 20.279 0.938242
324 41 1 0 12.5749 20.8983 1.43124
899 113 4 3 11.9557 20.279 5.58284
900 113 1 0 12.5749 20.8983 6.07584
901 113 1 0 11.9457 20.2691 4.58631
417 53 3 1 11.1461 25.0184 1.63237
418 53 2 2 11.1461 25.0184 2.88312
419 53 4 3 11.9557 25.8279 0.938242
420 53 1 0 12.5749 26.4472 1.43124
422 53 4 4 10.3365 24.2088 0.938242
423 53 1 0 9.71725 23.5895 1.43124
427 54 4 3 13.111 23.0535 3.94278
428 54 1 0 12.4917 23.6728 3.44978
429 54 1 0 13.1209 23.0435 4.93931
993 125 3 1 11.1461 25.0184 6.27697
995 125 4 3 11.9557 25.8279 5.58284
996 125 1 0 12.5749 26.4472 6.07584
997 125 1 0 11.9457 25.818 4.58631
998 125 4 4 10.3365 24.2088 5.58284
999 125 1 0 9.71725 23.5895 6.07584
1000 125 1 0 10.3465 24.2188 4.58631
3309 414 1 0 13.1209 23.0435 0.29471
425 54 3 1 13.9205 22.2439 3.24865
426 54 2 2 13.9205 22.2439 1.9979
430 54 4 4 14.7301 21.4343 3.94278
431 54 1 0 15.3494 20.8151 3.44978
432 54 1 0 14.7201 21.4443 4.93931
1002 126 2 2 13.9205 22.2439 6.64249
3312 414 1 0 14.7201 21.4443 0.29471
527 66 1 0 15.3494 26.364 3.44978
339 43 4 3 17.5046 20.279 0.938242
340 43 1 0 18.1238 20.8983 1.43124
915 115 4 3 17.5046 20.279 5.58284
916 115 1 0 18.1238 20.8983 6.07584
917 115 1 0 17.4946 20.2691 4.58631
433 55 3 1 16.695 25.0184 1.63237
434 55 2 2 16.695 25.0184 2.88312
435 55 4 3 17.5046 25.8279 0.938242
436 55 1 0 18.1238 26.4472 1.43124
438 55 4 4 15.8854 24.2088 0.938242
439 55 1 0 15.2662 23.5895 1.43124
441 56 3 1 19.4695 22.2439 3.24865
442 56 2 2 19.4695 22.2439 1.9979
443 56 4 3 18.6599 23.0535 3.94278
444 56 1 0 18.0406 23.6728 3.44978
445 56 1 0 18.6699 23.0435 4.93931
1009 127 3 1 16.695 25.0184 6.27697
1011 127 4 3 17.5046 25.8279 5.58284
1012 127 1 0 18.1238 26.4472 6.07584
1013 127 1 0 17.4946 25.818 4.58631
1014 127 4 4 15.8854 24.2088 5.58284
1015 127 1 0 15.2662 23.5895 6.07584
1016 127 1 0 15.8954 24.2188 4.58631
1018 128 2 2 19.4695 22.2439 6.64249
3325 416 1 0 18.6699 23.0435 0.29471
446 56 4 4 20.279 21.4343 3.94278
447 56 1 0 20.8983 20.8151 3.44978
448 56 1 0 20.2691 21.4443 4.93931
3328 416 1 0 20.2691 21.4443 0.29471
543 68 1 0 20.8983 26.364 3.44978
355 45 4 3 23.0535 20.279 0.938242
356 45 1 0 23.6728 20.8983 1.43124
931 117 4 3 23.0535 20.279 5.58284
932 117 1 0 23.6728 20.8983 6.07584
933 117 1 0 23.0435 20.2691 4.58631
449 57 3 1 22.2439 25.0184 1.63237
450 57 2 2 22.2439 25.0184 2.88312
451 57 4 3 23.0535 25.8279 0.938242
452 57 1 0 23.6728 26.4472 1.43124
454 57 4 4 21.4343 24.2088 0.938242
455 57 1 0 20.8151 23.5895 1.43124
457 58 3 1 25.0184 22.2439 3.24865
458 58 2 2 25.0184 22.2439 1.9979
459 58 4 3 24.2088 23.0535 3.94278
460 58 1 0 23.5895 23.6728 3.44978
461 58 1 0 24.2188 23.0435 4.93931
462 58 4 4 25.8279 21.4343 3.94278
463 58 1 0 26.4472 20.8151 3.44978
464 58 1 0 25.818 21.4443 4.93931
1025 129 3 1 22.2439 25.0184 6.27697
1027 129 4 3 23.0535 25.8279 5.58284
1028 129 1 0 23.6728 26.4472 6.07584
1029 129 1 0 23.0435 25.818 4.58631
1030 129 4 4 21.4343 24.2088 5.58284
1031 129 1 0 20.8151 23.5895 6.07584
1032 129 1 0 21.4443 24.2188 4.58631
1034 130 2 2 25.0184 22.2439 6.64249
3341 418 1 0 24.2188 23.0435 0.29471
3344 418 1 0 25.818 21.4443 0.29471
559 70 1 0 26.4472 26.364 3.44978
471 59 1 0 26.364 23.5895 1.43124
1047 131 1 0 26.364 23.5895 6.07584
385 49 3 1 33.3417 25.0184 1.63237
961 121 3 1 33.3417 25.0184 6.27697
390 49 4 4 32.5321 24.2088 0.938242
391 49 1 0 31.9129 23.5895 1.43124
966 121 4 4 32.5321 24.2088 5.58284
967 121 1 0 31.9129 23.5895 6.07584
968 121 1 0 32.5421 24.2188 4.58631
371 47 4 3 28.6024 20.279 0.938242
372 47 1 0 29.2217 20.8983 1.43124
947 119 4 3 28.6024 20.279 5.58284
948 119 1 0 29.2217 20.8983 6.07584
949 119 1 0 28.5924 20.2691 4.58631
465 59 3 1 27.7928 25.0184 1.63237
466 59 2 2 27.7928 25.0184 2.88312
467 59 4 3 28.6024 25.8279 0.938242
468 59 1 0 29.2217 26.4472 1.43124
470 59 4 4 26.9832 24.2088 0.938242
473 60 3 1 30.5673 22.2439 3.24865
474 60 2 2 30.5673 22.2439 1.9979
475 60 4 3 29.7577 23.0535 3.94278
476 60 1 0 29.1384 23.6728 3.44978
477 60 1 0 29.7677 23.0435 4.93931
478 60 4 4 31.3768 21.4343 3.94278
479 60 1 0 31.9961 20.8151 3.44978
480 60 1 0 31.3669 21.4443 4.93931
1041 131 3 1 27.7928 25.0184 6.27697
1043 131 4 3 28.6024 25.8279 5.58284
1044 131 1 0 29.2217 26.4472 6.07584
1045 131 1 0 28.5924 25.818 4.58631
1046 131 4 4 26.9832 24.2088 5.58284
1048 131 1 0 26.9932 24.2188 4.58631
1050 132 2 2 30.5673 22.2439 6.64249
3357 420 1 0 29.7677 23.0435 0.29471
3360 420 1 0 31.3669 21.4443 0.29471
575 72 1 0 31.9961 26.364 3.44978
10 2 2 2 2.82273 33.3417 1.9979
586 74 2 2 2.82273 33.3417 6.64249
14 2 4 4 3.63231 32.5321 3.94278
15 2 1 0 4.25158 31.9129 3.44978
16 2 1 0 3.62233 32.5421 4.93931
2896 362 1 0 3.62233 32.5421 0.29471
481 61 3 1 0.0482775 30.5673 1.63237
483 61 4 3 0.857859 31.3768 0.938242
484 61 1 0 1.47712 31.9961 1.43124
489 62 3 1 2.82273 27.7928 3.24865
490 62 2 2 2.82273 27.7928 1.9979
491 62 4 3 2.01315 28.6024 3.94278
492 62 1 0 1.39389 29.2217 3.44978
493 62 1 0 2.02313 28.5924 4.93931
494 62 4 4 3.63231 26.9832 3.94278
496 62 1 0 3.62233 26.9932 4.93931
1057 133 3 1 0.0482775 30.5673 6.27697
1059 133 4 3 0.857859 31.3768 5.58284
1060 133 1 0 1.47712 31.9961 6.07584
1061 133 1 0 0.847875 31.3669 4.58631
1066 134 2 2 2.82273 27.7928 6.64249
3373 422 1 0 2.02313 28.5924 0.29471
3376 422 1 0 3.62233 26.9932 0.29471
497 63 3 1 5.59719 30.5673 1.63237
498 63 2 2 5.59719 30.5673 2.88312
499 63 4 3 6.40677 31.3768 0.938242
502 63 4 4 4.7876 29.7577 0.938242
503 63 1 0 4.16834 29.1384 1.43124
1073 135 3 1 5.59719 30.5673 6.27697
1075 135 4 3 6.40677 31.3768 5.58284
1077 135 1 0 6.39678 31.3669 4.58631
1078 135 4 4 4.7876 29.7577 5.58284
1079 135 1 0 4.16834 29.1384 6.07584
1080 135 1 0 4.79759 29.7677 4.58631
25 4 3 1 8.37164 33.3417 3.24865
30 4 4 4 9.18122 32.5321 3.94278
31 4 1 0 9.80048 31.9129 3.44978
32 4 1 0 9.17124 32.5421 4.93931
2912 364 1 0 9.17124 32.5421 0.29471
500 63 1 0 7.02603 31.9961 1.43124
505 64 3 1 8.37164 27.7928 3.24865
506 64 2 2 8.37164 27.7928 1.9979
507 64 4 3 7.56206 28.6024 3.94278
508 64 1 0 6.94279 29.2217 3.44978
509 64 1 0 7.57204 28.5924 4.93931
510 64 4 4 9.18122 26.9832 3.94278
512 64 1 0 9.17124 26.9932 4.93931
1076 135 1 0 7.02603 31.9961 6.07584
1082 136 2 2 8.37164 27.7928 6.64249
3389 424 1 0 7.57204 28.5924 0.29471
3392 424 1 0 9.17124 26.9932 0.29471
513 65 3 1 11.1461 30.5673 1.63237
514 65 2 2 11.1461 30.5673 2.88312
515 65 4 3 11.9557 31.3768 0.938242
516 65 1 0 12.5749 31.9961 1.43124
518 65 4 4 10.3365 29.7577 0.938242
519 65 1 0 9.71725 29.1384 1.43124
523 66 4 3 13.111 28.6024 3.94278
524 66 1 0 12.4917 29.2217 3.44978
525 66 1 0 13.1209 28.5924 4.93931
1089 137 3 1 11.1461 30.5673 6.27697
1091 137 4 3 11.9557 31.3768 5.58284
1092 137 1 0 12.5749 31.9961 6.07584
1093 137 1 0 11.9457 31.3669 4.58631
1094 137 4 4 10.3365 29.7577 5.58284
1095 137 1 0 9.71725 29.1384 6.07584
1096 137 1 0 10.3465 29.7677 4.58631
3405 426 1 0 13.1209 28.5924 0.29471
42 6 2 2 13.9205 33.3417 1.9979
618 78 2 2 13.9205 33.3417 6.64249
57 8 3 1 19.4695 33.3417 3.24865
46 6 4 4 14.7301 32.5321 3.94278
47 6 1 0 15.3494 31.9129 3.44978
48 6 1 0 14.7201 32.5421 4.93931
2928 366 1 0 14.7201 32.5421 0.29471
521 66 3 1 13.9205 27.7928 3.24865
522 66 2 2 13.9205 27.7928 1.9979
526 66 4 4 14.7301 26.9832 3.94278
528 66 1 0 14.7201 26.9932 4.93931
1098 138 2 2 13.9205 27.7928 6.64249
3408 426 1 0 14.7201 26.9932 0.29471
529 67 3 1 16.695 30.5673 1.63237
530 67 2 2 16.695 30.5673 2.88312
531 67 4 3 17.5046 31.3768 0.938242
532 67 1 0 18.1238 31.9961 1.43124
534 67 4 4 15.8854 29.7577 0.938242
535 67 1 0 15.2662 29.1384 1.43124
537 68 3 1 19.4695 27.7928 3.24865
538 68 2 2 19.4695 27.7928 1.9979
539 68 4 3 18.6599 28.6024 3.94278
540 68 1 0 18.0406 29.2217 3.44978
541 68 1 0 18.6699 28.5924 4.93931
1105 139 3 1 16.695 30.5673 6.27697
1107 139 4 3 17.5046 31.3768 5.58284
1108 139 1 0 18.1238 31.9961 6.07584
1109 139 1 0 17.4946 31.3669 4.58631
1110 139 4 4 15.8854 29.7577 5.58284
1111 139 1 0 15.2662 29.1384 6.07584
1112 139 1 0 15.8954 29.7677 4.58631
1114 140 2 2 19.4695 27.7928 6.64249
3421 428 1 0 18.6699 28.5924 0.29471
74 10 2 2 25.0184 33.3417 1.9979
650 82 2 2 25.0184 33.3417 6.64249
62 8 4 4 20.279 32.5321 3.94278
63 8 1 0 20.8983 31.9129 3.44978
64 8 1 0 20.2691 32.5421 4.93931
2944 368 1 0 20.2691 32.5421 0.29471
542 68 4 4 20.279 26.9832 3.94278
544 68 1 0 20.2691 26.9932 4.93931
3424 428 1 0 20.2691 26.9932 0.29471
78 10 4 4 25.8279 32.5321 3.94278
79 10 1 0 26.4472 31.9129 3.44978
80 10 1 0 25.818 32.5421 4.93931
2960 370 1 0 25.818 32.5421 0.29471
545 69 3 1 22.2439 30.5673 1.63237
546 69 2 2 22.2439 30.5673 2.88312
547 69 4 3 23.0535 31.3768 0.938242
548 69 1 0 23.6728 31.9961 1.43124
550 69 4 4 21.4343 29.7577 0.938242
551 69 1 0 20.8151 29.1384 1.43124
553 70 3 1 25.0184 27.7928 3.24865
554 70 2 2 25.0184 27.7928 1.9979
555 70 4 3 24.2088 28.6024 3.94278
556 70 1 0 23.5895 29.2217 3.44978
557 70 1 0 24.2188 28.5924 4.93931
558 70 4 4 25.8279 26.9832 3.94278
560 70 1 0 25.818 26.9932 4.93931
1121 141 3 1 22.2439 30.5673 6.27697
1123 141 4 3 23.0535 31.3768 5.58284
1124 141 1 0 23.6728 31.9961 6.07584
1125 141 1 0 23.0435 31.3669 4.58631
1126 141 4 4 21.4343 29.7577 5.58284
1127 141 1 0 20.8151 29.1384 6.07584
1128 141 1 0 21.4443 29.7677 4.58631
1130 142 2 2 25.0184 27.7928 6.64249
3437 430 1 0 24.2188 28.5924 0.29471
3440 430 1 0 25.818 26.9932 0.29471
567 71 1 0 26.364 29.1384 1.43124
1143 143 1 0 26.364 29.1384 6.07584
89 12 3 1 30.5673 33.3417 3.24865
482 61 2 2 33.3417 30.5673 2.88312
486 61 4 4 32.5321 29.7577 0.938242
487 61 1 0 31.9129 29.1384 1.43124
1062 133 4 4 32.5321 29.7577 5.58284
1063 133 1 0 31.9129 29.1384 6.07584
1064 133 1 0 32.5421 29.7677 4.58631
94 12 4 4 31.3768 32.5321 3.94278
95 12 1 0 31.9961 31.9129 3.44978
96 12 1 0 31.3669 32.5421 4.93931
2976 372 1 0 31.3669 32.5421 0.29471
561 71 3 1 27.7928 30.5673 1.63237