LAMMPS Description

     60  atoms
     60  bonds
     88  angles
     112  dihedrals
     28  impropers

     10  atom types
     8  bond types
     12  angle types
     17  dihedral types
     5  improper types

  0.0 3.7525 xlo xhi
  0.0 12.2796818552 ylo yhi
  0.0 12.370303431 zlo zhi
  1.0311536956 0.9839036684 4.0765360096 xy xz yz

Masses

1 1.008  # ha
8 1.008  # h4
2 1.008  # hn
6 14.01  # n
7 14.01  # nb
4 12.01  # c
5 12.01  # ca
3 16.0  # o
9 12.01 # ca1
10 12.01 # ca2

Atoms  # full

1 1 9 -0.326615 2.391 9.94 3.379
2 1 5 0.380568 2.526 9.262 2.165
3 1 7 -0.585364 3.042 9.8 1.062
4 1 10 0.384166 3.459 11.076 1.15
5 1 5 -0.38538 3.325 11.85 2.291
6 1 5 0.173788 2.778 11.278 3.417
7 1 4 0.6054 1.851 9.279 4.6
8 1 3 -0.479634 1.304 9.95 5.499
9 1 6 -0.779885 1.981 7.955 4.677
10 1 2 0.357505 1.682 7.533 5.365
11 1 2 0.357505 2.363 7.522 4.04
12 1 8 0.027993 2.237 8.379 2.125
13 1 8 0.034858 3.859 11.46 0.404
14 1 1 0.157212 3.6 12.738 2.295
15 1 1 0.077882 2.669 11.778 4.193
16 2 9 -0.326615 3.377 6.417 8.991
17 2 5 0.380568 3.242 7.094 10.205
18 2 7 -0.585364 2.726 6.557 11.308
19 2 10 0.384166 2.309 5.28 11.22
20 2 5 -0.38538 2.443 4.507 10.08
21 2 5 0.173788 2.99 5.078 8.953
22 2 4 0.6054 3.918 7.077 7.77
23 2 3 -0.479634 4.464 6.406 6.871
24 2 6 -0.779885 3.788 8.402 7.693
25 2 2 0.357505 4.086 8.824 7.005
26 2 2 0.357505 3.405 8.834 8.33
27 2 8 0.027993 3.531 7.977 10.246
28 2 8 0.034858 1.909 4.896 11.966
29 2 1 0.157212 2.169 3.618 10.075
30 2 1 0.077882 3.099 4.578 8.177
31 3 9 -0.326615 0.768 3.987 3.638
32 3 5 0.380568 0.159 5.219 3.895
33 3 7 -0.585364 -0.332 6.018 2.946
34 3 10 0.384166 -0.256 5.59 1.682
35 3 5 -0.38538 0.295 4.369 1.321
36 3 5 0.173788 0.809 3.561 2.315
37 3 4 0.6054 1.387 3.136 4.707
38 3 3 -0.479634 1.886 2.041 4.401
39 3 6 -0.779885 1.412 3.606 5.955
40 3 2 0.357505 1.783 3.147 6.58
41 3 2 0.357505 1.057 4.369 6.133
42 3 8 0.027993 0.094 5.499 4.779
43 3 8 0.034858 -0.589 6.139 1.009
44 3 1 0.157212 0.317 4.102 0.431
45 3 1 0.077882 1.181 2.736 2.101
46 4 9 -0.326615 5.0 12.369 8.732
47 4 5 0.380568 5.609 11.137 8.476
48 4 7 -0.585364 6.1 10.338 9.424
49 4 10 0.384166 6.024 10.767 10.689
50 4 5 -0.38538 5.473 11.987 11.049
51 4 5 0.173788 4.959 12.796 10.055
52 4 4 0.6054 4.381 13.221 7.663
53 4 3 -0.479634 3.882 14.316 7.969
54 4 6 -0.779885 4.356 12.75 6.416
55 4 2 0.357505 3.985 13.209 5.79
56 4 2 0.357505 4.711 11.987 6.237
57 4 8 0.027993 5.674 10.858 7.591
58 4 8 0.034858 6.357 10.218 11.361
59 4 1 0.157212 5.451 12.254 11.939
60 4 1 0.077882 4.587 13.621 10.27

Bonds

1 5 5 14
2 5 6 15
3 5 20 29
4 5 21 30
5 5 35 44
6 5 36 45
7 5 50 59
8 5 51 60
9 4 2 12
10 4 4 13
11 4 17 27
12 4 19 28
13 4 32 42
14 4 34 43
15 4 47 57
16 4 49 58
17 8 9 10
18 8 9 11
19 8 24 26
20 8 24 25
21 8 39 40
22 8 39 41
23 8 54 56
24 8 54 55
25 7 7 9
26 7 22 24
27 7 37 39
28 7 52 54
29 3 2 3
30 3 3 4
31 3 17 18
32 3 18 19
33 3 32 33
34 3 33 34
35 3 47 48
36 3 48 49
37 2 1 7
38 2 16 22
39 2 31 37
40 2 46 52
41 6 7 8
42 6 22 23
43 6 37 38
44 6 52 53
45 1 1 2
46 1 1 6
47 1 4 5
48 1 5 6
49 1 16 21
50 1 16 17
51 1 19 20
52 1 20 21
53 1 31 32
54 1 31 36
55 1 34 35
56 1 35 36
57 1 46 51
58 1 46 47
59 1 49 50
60 1 50 51

Angles

1 1 1 2 3
2 1 3 4 5
3 1 16 17 18
4 1 18 19 20
5 1 31 32 33
6 1 33 34 35
7 1 46 47 48
8 1 48 49 50
9 2 1 2 12
10 2 5 4 13
11 2 16 17 27
12 2 20 19 28
13 2 31 32 42
14 2 35 34 43
15 2 46 47 57
16 2 50 49 58
17 3 1 6 5
18 3 2 1 6
19 3 4 5 6
20 3 16 21 20
21 3 17 16 21
22 3 19 20 21
23 3 31 36 35
24 3 32 31 36
25 3 34 35 36
26 3 46 51 50
27 3 47 46 51
28 3 49 50 51
29 4 1 6 15
30 4 4 5 14
31 4 5 6 15
32 4 6 5 14
33 4 16 21 30
34 4 19 20 29
35 4 20 21 30
36 4 21 20 29
37 4 31 36 45
38 4 34 35 44
39 4 35 36 45
40 4 36 35 44
41 4 46 51 60
42 4 49 50 59
43 4 50 51 60
44 4 51 50 59
45 5 1 7 8
46 5 16 22 23
47 5 31 37 38
48 5 46 52 53
49 6 1 7 9
50 6 16 22 24
51 6 31 37 39
52 6 46 52 54
53 7 2 1 7
54 7 6 1 7
55 7 21 16 22
56 7 17 16 22
57 7 32 31 37
58 7 36 31 37
59 7 51 46 52
60 7 47 46 52
61 8 2 3 4
62 8 17 18 19
63 8 32 33 34
64 8 47 48 49
65 9 3 2 12
66 9 3 4 13
67 9 18 17 27
68 9 18 19 28
69 9 33 32 42
70 9 33 34 43
71 9 48 47 57
72 9 48 49 58
73 10 7 9 10
74 10 7 9 11
75 10 22 24 26
76 10 22 24 25
77 10 37 39 40
78 10 37 39 41
79 10 52 54 56
80 10 52 54 55
81 11 8 7 9
82 11 23 22 24
83 11 38 37 39
84 11 53 52 54
85 12 10 9 11
86 12 25 24 26
87 12 40 39 41
88 12 55 54 56

Dihedrals

1 1 3 2 1 6
2 1 3 4 5 6
3 1 18 17 16 21
4 1 18 19 20 21
5 1 33 32 31 36
6 1 33 34 35 36
7 1 48 47 46 51
8 1 48 49 50 51
9 2 3 2 1 7
10 2 18 17 16 22
11 2 33 32 31 37
12 2 48 47 46 52
13 3 1 2 3 4
14 3 2 3 4 5
15 3 16 17 18 19
16 3 17 18 19 20
17 3 31 32 33 34
18 3 32 33 34 35
19 3 46 47 48 49
20 3 47 48 49 50
21 4 4 3 2 12
22 4 2 3 4 13
23 4 19 18 17 27
24 4 17 18 19 28
25 4 34 33 32 42
26 4 32 33 34 43
27 4 49 48 47 57
28 4 47 48 49 58
29 5 1 6 5 14
30 5 2 1 6 15
31 5 4 5 6 15
32 5 16 21 20 29
33 5 17 16 21 30
34 5 19 20 21 30
35 5 31 36 35 44
36 5 32 31 36 45
37 5 34 35 36 45
38 5 46 51 50 59
39 5 47 46 51 60
40 5 49 50 51 60
41 6 1 6 5 4
42 6 2 1 6 5
43 6 16 21 20 19
44 6 17 16 21 20
45 6 31 36 35 34
46 6 32 31 36 35
47 6 46 51 50 49
48 6 47 46 51 50
49 7 2 1 7 8
50 7 6 1 7 8
51 7 21 16 22 23
52 7 17 16 22 23
53 7 32 31 37 38
54 7 36 31 37 38
55 7 51 46 52 53
56 7 47 46 52 53
57 8 2 1 7 9
58 8 6 1 7 9
59 8 21 16 22 24
60 8 17 16 22 24
61 8 32 31 37 39
62 8 36 31 37 39
63 8 51 46 52 54
64 8 47 46 52 54
65 9 6 1 2 12
66 9 6 5 4 13
67 9 21 16 17 27
68 9 21 20 19 28
69 9 36 31 32 42
70 9 36 35 34 43
71 9 51 46 47 57
72 9 51 50 49 58
73 10 7 1 2 12
74 10 22 16 17 27
75 10 37 31 32 42
76 10 52 46 47 57
77 11 1 7 9 10
78 11 1 7 9 11
79 11 16 22 24 26
80 11 16 22 24 25
81 11 31 37 39 40
82 11 31 37 39 41
83 11 46 52 54 56
84 11 46 52 54 55
85 12 14 5 6 15
86 12 29 20 21 30
87 12 44 35 36 45
88 12 59 50 51 60
89 13 3 4 5 14
90 13 18 19 20 29
91 13 33 34 35 44
92 13 48 49 50 59
93 14 13 4 5 14
94 14 28 19 20 29
95 14 43 34 35 44
96 14 58 49 50 59
97 15 7 1 6 15
98 15 22 16 21 30
99 15 37 31 36 45
100 15 52 46 51 60
101 16 5 6 1 7
102 16 20 21 16 22
103 16 35 36 31 37
104 16 50 51 46 52
105 17 8 7 9 10
106 17 8 7 9 11
107 17 23 22 24 25
108 17 23 22 24 26
109 17 38 37 39 40
110 17 38 37 39 41
111 17 53 52 54 55
112 17 53 52 54 56

Impropers

1 1 2 6 1 7
2 1 17 21 16 22
3 1 32 36 31 37
4 1 47 51 46 52
5 2 1 3 2 12
6 2 3 5 4 13
7 2 16 18 17 27
8 2 18 20 19 28
9 2 31 33 32 42
10 2 33 35 34 43
11 2 46 48 47 57
12 2 48 50 49 58
13 3 1 5 6 15
14 3 4 6 5 14
15 3 16 20 21 30
16 3 19 21 20 29
17 3 31 35 36 45
18 3 34 36 35 44
19 3 46 50 51 60
20 3 49 51 50 59
21 4 1 8 7 9
22 4 16 23 22 24
23 4 31 38 37 39
24 4 46 53 52 54
25 5 7 10 9 11
26 5 22 25 24 26
27 5 37 40 39 41
28 5 52 55 54 56

