ITEM: TIMESTEP
0
ITEM: NUMBER OF ATOMS
16
ITEM: BOX BOUNDS pp pp pp
-1.0000000000000000e+01 1.5564999999999998e+01
-1.0000000000000000e+01 1.5564999999999998e+01
-1.0000000000000000e+01 1.4683999999999997e+01
ITEM: ATOMS id mol element x y z vx vy vz fx fy fz
6 1 5 -0.811934 1.97057 0.826984 0.00102894 0.00115759 0.000662741 10.5874 12.7787 -1.43502
7 1 1 -1.43299 1.34951 1.32417 -0.00993362 0.00344728 -0.00105819 3.04384 1.80538 0.852836
8 1 1 -0.801917 1.98058 -0.177992 0.0115238 -0.0217263 -0.0130182 0.176691 -1.3932 1.8246
10 2 2 2.7825 0 1.89561 0.00160581 -0.00379058 0.000251318 0.951802 -0.949406 73.6227
1 1 3 0 2.7825 1.52698 -0.00143604 0.00378632 -0.00262553 0.216271 -0.21708 72.6245
3 1 4 0.811934 3.59443 0.826984 -0.0022742 0.00132566 0.000667034 -12.7742 -10.5873 -1.43211
4 1 1 1.43299 4.21549 1.32417 0.0105298 -0.00708216 -0.00631821 -1.80802 -3.04231 0.850759
5 1 1 0.801917 3.58442 -0.177992 -0.00290381 -0.00846149 0.0120391 1.39079 -0.176928 1.82287
11 2 4 1.97057 0.811934 3.85702 0.001702 -0.00328569 0.00035431 17.6548 -17.6445 5.68171
12 2 1 1.34951 1.43299 3.35983 -0.00223496 -0.0107232 0.0022052 -3.57605 3.56866 -3.89295
13 2 1 1.98058 0.801917 4.86199 -0.0201079 -0.00477665 0.0018464 -2.29025 2.28471 -3.35578
9 2 3 2.7825 0 3.15702 0.00219708 0.000544798 -0.002021 -0.73853 0.737419 -73.5605
14 2 5 3.59443 -0.811934 3.85702 -0.00190443 0.00330472 0.000973998 -10.6182 10.6189 3.04837
15 2 1 4.21549 -1.43299 3.35983 -0.00112461 -0.013822 -0.0055004 -2.9164 2.91562 -1.62735
16 2 1 3.58442 -0.801917 4.86199 0.0119306 0.0136875 -0.00123172 0.172115 -0.172783 -2.15925
2 1 2 0 2.7825 2.78839 -0.000763233 0.00146427 0.00160427 0.527932 -0.525892 -72.8654
