LAMMPS (24 Mar 2022)
Reading data file ...
  triclinic box = (0 0 0) to (3.8123 14.3879 5.1052563) with tilt (8.8100478e-16 -0.38028205 3.367584e-16)
  1 by 1 by 1 MPI processor grid
  reading atoms ...
  30 atoms
  scanning bonds ...
  3 = max bonds/atom
  scanning angles ...
  3 = max angles/atom
  scanning dihedrals ...
  9 = max dihedrals/atom
  scanning impropers ...
  2 = max impropers/atom
  reading bonds ...
  30 bonds
  reading angles ...
  44 angles
  reading dihedrals ...
  56 dihedrals
  reading impropers ...
  14 impropers
Finding 1-2 1-3 1-4 neighbors ...
  special bond factors lj:    0        0        0.5     
  special bond factors coul:  0        0        0.8333333333333334
     3 = max # of 1-2 neighbors
     6 = max # of 1-3 neighbors
    11 = max # of 1-4 neighbors
    13 = max # of special neighbors
  special bonds CPU = 0.000 seconds
  read_data CPU = 0.005 seconds
PPPM initialization ...
  using 12-bit tables for long-range coulomb (../kspace.cpp:340)
  G vector (1/distance) = 0.29083301
  grid = 4 8 5
  stencil order = 5
  estimated absolute RMS force accuracy = 0.0033179949
  estimated relative force accuracy = 9.992043e-06
  using double precision KISS FFT
  3d grid and FFT values/proc = 1980 160
  generated 28 of 28 mixed pair_coeff terms from arithmetic mixing rule
Neighbor list info ...
  update every 1 steps, delay 10 steps, check yes
  max neighbors/atom: 2000, page size: 100000
  master list distance cutoff = 12
  ghost atom cutoff = 12
  binsize = 6, bins = 1 3 1
  1 neighbor lists, perpetual/occasional/extra = 1 0 0
  (1) pair lj/charmm/coul/long, perpetual
      attributes: half, newton on
      pair build: half/bin/newton/tri
      stencil: half/bin/3d/tri
      bin: standard
Setting up Verlet run ...
  Unit style    : real
  Current step  : 0
  Time step     : 1
WARNING: Bond/angle/dihedral extent > half of periodic box length (../domain.cpp:944)
Per MPI rank memory allocation (min/avg/max) = 13.38 | 13.38 | 13.38 Mbytes
   Step          Time           Temp          Press          Volume         TotEng         E_pair         E_mol     
         0       0.000      100.000000   102502.500550      280.028368 -1.351927e+02 -2.672709e+02 1.234338e+02
         1       1.000      410.585558    96157.705372      280.056926 -1.376252e+02 -2.673107e+02 9.419308e+01
WARNING: Bond/angle/dihedral extent > half of periodic box length (../domain.cpp:944)
Loop time of 0.000442628 on 1 procs for 1 steps with 30 atoms

Performance: 195.198 ns/day, 0.123 hours/ns, 2259.233 timesteps/s
99.0% CPU use with 1 MPI tasks x no OpenMP threads

MPI task timing breakdown:
Section |  min time  |  avg time  |  max time  |%varavg| %total
---------------------------------------------------------------
Pair    | 0.00025297 | 0.00025297 | 0.00025297 |   0.0 | 57.15
Bond    | 1.1396e-05 | 1.1396e-05 | 1.1396e-05 |   0.0 |  2.57
Kspace  | 6.6054e-05 | 6.6054e-05 | 6.6054e-05 |   0.0 | 14.92
Neigh   | 0          | 0          | 0          |   0.0 |  0.00
Comm    | 2.2329e-05 | 2.2329e-05 | 2.2329e-05 |   0.0 |  5.04
Output  | 4.3731e-05 | 4.3731e-05 | 4.3731e-05 |   0.0 |  9.88
Modify  | 4.0898e-05 | 4.0898e-05 | 4.0898e-05 |   0.0 |  9.24
Other   |            | 5.252e-06  |            |       |  1.19

Nlocal:             30 ave          30 max          30 min
Histogram: 1 0 0 0 0 0 0 0 0 0
Nghost:           3360 ave        3360 max        3360 min
Histogram: 1 0 0 0 0 0 0 0 0 0
Neighs:          11600 ave       11600 max       11600 min
Histogram: 1 0 0 0 0 0 0 0 0 0

Total # of neighbors = 11600
Ave neighs/atom = 386.66667
Ave special neighs/atom = 8.2666667
Neighbor list builds = 0
Dangerous builds = 0
Total wall time: 0:00:00
