ITEM: TIMESTEP
0
ITEM: NUMBER OF ATOMS
30
ITEM: BOX BOUNDS xy xz yz pp pp pp
-3.8028204580000002e-01 3.8123000000000009e+00 8.8100478406999999e-16
0.0000000000000000e+00 1.4387900000000000e+01 -3.8028204580000002e-01
0.0000000000000000e+00 5.1052563036000000e+00 3.3675840068999998e-16
ITEM: ATOMS id mol element sym_type x y z vx vy vz
1 1 5 1 2.785 7.001 1.945 0.000652606 0.0029658 -0.0038467
2 1 5 0 3.156 7.994 2.856 0.00186796 -0.0008066 -0.000846901
3 1 7 0 2.962 9.299 2.667 0.00265948 -0.00065207 0.000781851
4 1 5 2 2.344 9.669 1.534 -0.0044096 -0.000974762 -0.00186988
5 1 5 0 1.918 8.758 0.573 -8.97143e-05 -0.00152649 0.00428365
6 1 5 0 2.149 7.4 0.769 -0.000579473 0.000685993 0.000317519
7 1 4 0 3.107 5.586 2.313 0.0013817 0.00193481 0.000720264
8 1 3 3 3.199 5.271 3.508 -0.000432729 0.00263364 -0.00147748
9 1 6 4 3.316 4.725 1.315 0.00146337 -0.000567071 -0.00193302
10 1 2 0 3.525 3.909 1.487 0.0113898 0.0103549 0.00614305
11 1 2 0 3.241 4.986 0.499 0.00938135 0.0060387 -0.00509997
12 1 8 0 -0.2463 7.727 3.647 0.00322408 0.00645565 0.00253181
13 1 8 0 2.193 10.574 1.385 -0.00236849 -0.0157615 -0.00138622
14 1 1 0 1.10372 9.054 4.91126 0.0154465 -0.00804719 -0.00826509
15 1 1 0 1.885 6.774 0.133 -0.00791341 -0.00499909 0.00838549
16 2 5 1 0.648 14.1949 3.16 0.000371059 -0.000771724 0.00269591
17 2 5 0 0.276 0.8 2.249 -0.00453015 -0.000344151 0.000283191
18 2 7 0 0.47 2.105 2.438 0.00150664 -0.00181185 -0.000345167
19 2 5 2 1.089 2.475 3.572 -0.0053999 -0.000789714 0.00132424
20 2 5 0 1.514 1.564 4.532 4.81896e-05 -0.00685484 0.00530744
21 2 5 0 1.284 0.206 4.336 0.00244616 0.00108426 8.06651e-05
22 2 4 0 0.325 12.7799 2.792 0.000512204 6.16924e-05 0.00281901
23 2 3 3 0.233 12.4649 1.597 0.00225345 0.00125124 -0.00123173
24 2 6 4 0.117 11.9189 3.791 -0.00228556 -0.000240411 -0.00469331
25 2 2 0 -0.093 11.1029 3.618 0.00993014 0.00190744 0.0105849
26 2 2 0 0.191 12.1799 4.606 -0.00238904 -0.00577213 -0.0134681
27 2 8 0 3.6783 0.533 1.458 -0.0169191 0.0195176 -0.00717344
28 2 8 0 1.24 3.38 3.72 -0.00407632 0.00126175 -0.00998251
29 2 1 0 2.32828 1.86 0.194744 -0.000590836 0.0279161 0.00873287
30 2 1 0 1.548 13.9679 4.972 0.00159636 0.00850507 0.00376966
